<?xml version="1.0" encoding="UTF-8"?>

<!-- generated on 2024-01-23 10:05:08 by Eclipse SUMO sumo Version 1.19.0
<configuration xmlns:xsi="http://www.w3.org/2001/XMLSchema-instance" xsi:noNamespaceSchemaLocation="http://sumo.dlr.de/xsd/sumoConfiguration.xsd">

    <input>
        <net-file value="Network_and_config/csomor1.net.xml"/>
    </input>

    <output>
        <summary-output value="Network_and_config/summary.xml"/>
        <tripinfo-output value="Network_and_config/tripinfo.xml"/>
    </output>

    <traci_server>
        <remote-port value="51101"/>
    </traci_server>

</configuration>
-->

<tripinfos xmlns:xsi="http://www.w3.org/2001/XMLSchema-instance" xsi:noNamespaceSchemaLocation="http://sumo.dlr.de/xsd/tripinfo_file.xsd">
    <tripinfo id="6" depart="19.00" departLane="279952229#0_0" departPos="5.10" departSpeed="0.00" departDelay="0.00" arrival="339.00" arrivalLane="-115602933#2_0" arrivalPos="75.56" arrivalSpeed="8.63" duration="320.00" routeLength="2185.07" waitingTime="21.00" waitingCount="1" stopTime="0.00" timeLoss="66.23" rerouteNo="0" devices="tripinfo_6" vType="DEFAULT_VEHTYPE" speedFactor="1.05" vaporized=""/>
    <tripinfo id="8" depart="25.00" departLane="279952229#0_0" departPos="5.10" departSpeed="0.00" departDelay="0.00" arrival="392.00" arrivalLane="-115602933#2_0" arrivalPos="75.56" arrivalSpeed="6.99" duration="367.00" routeLength="2185.07" waitingTime="43.00" waitingCount="2" stopTime="0.00" timeLoss="84.17" rerouteNo="0" devices="tripinfo_8" vType="DEFAULT_VEHTYPE" speedFactor="0.94" vaporized=""/>
    <tripinfo id="10" depart="31.00" departLane="279952229#0_0" departPos="5.10" departSpeed="0.00" departDelay="0.00" arrival="394.00" arrivalLane="-115602933#2_0" arrivalPos="75.56" arrivalSpeed="8.10" duration="363.00" routeLength="2185.07" waitingTime="42.00" waitingCount="3" stopTime="0.00" timeLoss="118.28" rerouteNo="0" devices="tripinfo_10" vType="DEFAULT_VEHTYPE" speedFactor="1.09" vaporized=""/>
    <tripinfo id="12" depart="37.00" departLane="279952229#0_0" departPos="5.10" departSpeed="0.00" departDelay="0.00" arrival="396.00" arrivalLane="-115602933#2_0" arrivalPos="75.56" arrivalSpeed="8.41" duration="359.00" routeLength="2185.07" waitingTime="42.00" waitingCount="3" stopTime="0.00" timeLoss="105.09" rerouteNo="0" devices="tripinfo_12" vType="DEFAULT_VEHTYPE" speedFactor="1.05" vaporized=""/>
    <tripinfo id="20" depart="61.00" departLane="279952229#0_0" departPos="5.10" departSpeed="0.00" departDelay="0.00" arrival="399.00" arrivalLane="-115602933#2_0" arrivalPos="75.56" arrivalSpeed="7.70" duration="338.00" routeLength="2185.07" waitingTime="36.00" waitingCount="2" stopTime="0.00" timeLoss="76.72" rerouteNo="0" devices="tripinfo_20" vType="DEFAULT_VEHTYPE" speedFactor="1.02" vaporized=""/>
    <tripinfo id="22" depart="67.00" departLane="279952229#0_0" departPos="5.10" departSpeed="0.00" departDelay="0.00" arrival="401.00" arrivalLane="-115602933#2_0" arrivalPos="75.56" arrivalSpeed="8.00" duration="334.00" routeLength="2185.07" waitingTime="21.00" waitingCount="2" stopTime="0.00" timeLoss="61.94" rerouteNo="0" devices="tripinfo_22" vType="DEFAULT_VEHTYPE" speedFactor="0.97" vaporized=""/>
    <tripinfo id="0" depart="1.00" departLane="279952229#0_0" departPos="5.10" departSpeed="0.00" departDelay="0.00" arrival="478.00" arrivalLane="-115602933#2_0" arrivalPos="75.56" arrivalSpeed="8.31" duration="477.00" routeLength="3799.21" waitingTime="20.00" waitingCount="2" stopTime="0.00" timeLoss="93.78" rerouteNo="0" devices="tripinfo_0" vType="DEFAULT_VEHTYPE" speedFactor="1.06" vaporized=""/>
    <tripinfo id="2" depart="7.00" departLane="279952229#0_0" departPos="5.10" departSpeed="0.00" departDelay="0.00" arrival="483.00" arrivalLane="-115602933#2_0" arrivalPos="75.56" arrivalSpeed="7.13" duration="476.00" routeLength="3799.21" waitingTime="5.00" waitingCount="1" stopTime="0.00" timeLoss="75.12" rerouteNo="0" devices="tripinfo_2" vType="DEFAULT_VEHTYPE" speedFactor="1.01" vaporized=""/>
    <tripinfo id="4" depart="13.00" departLane="279952229#0_0" departPos="5.10" departSpeed="0.00" departDelay="0.00" arrival="486.00" arrivalLane="-115602933#2_0" arrivalPos="75.56" arrivalSpeed="7.58" duration="473.00" routeLength="3799.21" waitingTime="3.00" waitingCount="1" stopTime="0.00" timeLoss="79.49" rerouteNo="0" devices="tripinfo_4" vType="DEFAULT_VEHTYPE" speedFactor="1.03" vaporized=""/>
    <tripinfo id="24" depart="73.00" departLane="279952229#0_0" departPos="5.10" departSpeed="0.00" departDelay="0.00" arrival="491.00" arrivalLane="-115602933#2_0" arrivalPos="75.56" arrivalSpeed="6.33" duration="418.00" routeLength="2185.07" waitingTime="48.00" waitingCount="1" stopTime="0.00" timeLoss="96.56" rerouteNo="0" devices="tripinfo_24" vType="DEFAULT_VEHTYPE" speedFactor="0.83" vaporized=""/>
    <tripinfo id="26" depart="80.00" departLane="279952229#0_0" departPos="5.10" departSpeed="0.00" departDelay="1.00" arrival="493.00" arrivalLane="-115602933#2_0" arrivalPos="75.56" arrivalSpeed="7.07" duration="413.00" routeLength="2185.07" waitingTime="48.00" waitingCount="2" stopTime="0.00" timeLoss="123.48" rerouteNo="0" devices="tripinfo_26" vType="DEFAULT_VEHTYPE" speedFactor="0.92" vaporized=""/>
    <tripinfo id="30" depart="91.00" departLane="279952229#0_0" departPos="5.10" departSpeed="0.00" departDelay="0.00" arrival="495.00" arrivalLane="-115602933#2_0" arrivalPos="75.56" arrivalSpeed="9.10" duration="404.00" routeLength="2185.07" waitingTime="47.00" waitingCount="1" stopTime="0.00" timeLoss="178.18" rerouteNo="0" devices="tripinfo_30" vType="DEFAULT_VEHTYPE" speedFactor="1.18" vaporized=""/>
    <tripinfo id="32" depart="97.00" departLane="279952229#0_0" departPos="5.10" departSpeed="0.00" departDelay="0.00" arrival="498.00" arrivalLane="-115602933#2_0" arrivalPos="75.56" arrivalSpeed="7.71" duration="401.00" routeLength="2185.07" waitingTime="47.00" waitingCount="2" stopTime="0.00" timeLoss="136.20" rerouteNo="0" devices="tripinfo_32" vType="DEFAULT_VEHTYPE" speedFactor="1.01" vaporized=""/>
    <tripinfo id="34" depart="103.00" departLane="279952229#0_0" departPos="5.10" departSpeed="0.00" departDelay="0.00" arrival="500.00" arrivalLane="-115602933#2_0" arrivalPos="75.56" arrivalSpeed="7.45" duration="397.00" routeLength="2185.07" waitingTime="46.00" waitingCount="1" stopTime="0.00" timeLoss="129.68" rerouteNo="0" devices="tripinfo_34" vType="DEFAULT_VEHTYPE" speedFactor="0.99" vaporized=""/>
    <tripinfo id="40" depart="121.00" departLane="279952229#0_0" departPos="5.10" departSpeed="0.00" departDelay="0.00" arrival="502.00" arrivalLane="-115602933#2_0" arrivalPos="75.56" arrivalSpeed="8.01" duration="381.00" routeLength="2185.07" waitingTime="45.00" waitingCount="1" stopTime="0.00" timeLoss="123.43" rerouteNo="0" devices="tripinfo_40" vType="DEFAULT_VEHTYPE" speedFactor="1.03" vaporized=""/>
    <tripinfo id="46" depart="139.00" departLane="279952229#0_0" departPos="5.10" departSpeed="0.00" departDelay="0.00" arrival="505.00" arrivalLane="-115602933#2_0" arrivalPos="75.56" arrivalSpeed="7.38" duration="366.00" routeLength="2185.07" waitingTime="45.00" waitingCount="2" stopTime="0.00" timeLoss="99.43" rerouteNo="0" devices="tripinfo_46" vType="DEFAULT_VEHTYPE" speedFactor="1.00" vaporized=""/>
    <tripinfo id="48" depart="145.00" departLane="279952229#0_0" departPos="5.10" departSpeed="0.00" departDelay="0.00" arrival="509.00" arrivalLane="-115602933#2_0" arrivalPos="75.56" arrivalSpeed="6.89" duration="364.00" routeLength="2185.07" waitingTime="9.00" waitingCount="1" stopTime="0.00" timeLoss="60.16" rerouteNo="0" devices="tripinfo_48" vType="DEFAULT_VEHTYPE" speedFactor="0.88" vaporized=""/>
    <tripinfo id="50" depart="151.00" departLane="279952229#0_0" departPos="5.10" departSpeed="0.00" departDelay="0.00" arrival="514.00" arrivalLane="-115602933#2_0" arrivalPos="75.56" arrivalSpeed="5.97" duration="363.00" routeLength="2185.07" waitingTime="9.00" waitingCount="1" stopTime="0.00" timeLoss="52.12" rerouteNo="0" devices="tripinfo_50" vType="DEFAULT_VEHTYPE" speedFactor="0.85" vaporized=""/>
    <tripinfo id="56" depart="169.00" departLane="279952229#0_0" departPos="5.10" departSpeed="0.00" departDelay="0.00" arrival="517.00" arrivalLane="-115602933#2_0" arrivalPos="75.56" arrivalSpeed="7.40" duration="348.00" routeLength="2185.07" waitingTime="0.00" waitingCount="0" stopTime="0.00" timeLoss="51.44" rerouteNo="0" devices="tripinfo_56" vType="DEFAULT_VEHTYPE" speedFactor="0.90" vaporized=""/>
    <tripinfo id="62" depart="187.00" departLane="279952229#0_0" departPos="5.10" departSpeed="0.00" departDelay="0.00" arrival="519.00" arrivalLane="-115602933#2_0" arrivalPos="75.56" arrivalSpeed="7.95" duration="332.00" routeLength="2185.07" waitingTime="0.00" waitingCount="0" stopTime="0.00" timeLoss="70.05" rerouteNo="0" devices="tripinfo_62" vType="DEFAULT_VEHTYPE" speedFactor="1.02" vaporized=""/>
    <tripinfo id="14" depart="43.00" departLane="279952229#0_0" departPos="5.10" departSpeed="0.00" departDelay="0.00" arrival="523.00" arrivalLane="-115602933#2_0" arrivalPos="75.56" arrivalSpeed="7.82" duration="480.00" routeLength="3799.21" waitingTime="2.00" waitingCount="1" stopTime="0.00" timeLoss="68.94" rerouteNo="0" devices="tripinfo_14" vType="DEFAULT_VEHTYPE" speedFactor="0.99" vaporized=""/>
    <tripinfo id="64" depart="193.00" departLane="279952229#0_0" departPos="5.10" departSpeed="0.00" departDelay="0.00" arrival="526.00" arrivalLane="-115602933#2_0" arrivalPos="75.56" arrivalSpeed="6.94" duration="333.00" routeLength="2185.07" waitingTime="2.00" waitingCount="1" stopTime="0.00" timeLoss="49.38" rerouteNo="0" devices="tripinfo_64" vType="DEFAULT_VEHTYPE" speedFactor="0.94" vaporized=""/>
    <tripinfo id="70" depart="211.00" departLane="279952229#0_0" departPos="5.10" departSpeed="0.00" departDelay="0.00" arrival="589.00" arrivalLane="-115602933#2_0" arrivalPos="75.56" arrivalSpeed="8.06" duration="378.00" routeLength="2185.07" waitingTime="72.00" waitingCount="3" stopTime="0.00" timeLoss="118.27" rerouteNo="0" devices="tripinfo_70" vType="DEFAULT_VEHTYPE" speedFactor="1.02" vaporized=""/>
    <tripinfo id="74" depart="224.00" departLane="279952229#0_0" departPos="5.10" departSpeed="0.00" departDelay="1.00" arrival="591.00" arrivalLane="-115602933#2_0" arrivalPos="75.56" arrivalSpeed="6.83" duration="367.00" routeLength="2185.07" waitingTime="36.00" waitingCount="4" stopTime="0.00" timeLoss="89.09" rerouteNo="0" devices="tripinfo_74" vType="DEFAULT_VEHTYPE" speedFactor="0.96" vaporized=""/>
    <tripinfo id="76" depart="229.00" departLane="279952229#0_0" departPos="5.10" departSpeed="0.00" departDelay="0.00" arrival="593.00" arrivalLane="-115602933#2_0" arrivalPos="75.56" arrivalSpeed="8.08" duration="364.00" routeLength="2185.07" waitingTime="33.00" waitingCount="4" stopTime="0.00" timeLoss="106.44" rerouteNo="0" devices="tripinfo_76" vType="DEFAULT_VEHTYPE" speedFactor="1.03" vaporized=""/>
    <tripinfo id="78" depart="235.00" departLane="279952229#0_0" departPos="5.10" departSpeed="0.00" departDelay="0.00" arrival="595.00" arrivalLane="-115602933#2_0" arrivalPos="75.56" arrivalSpeed="8.12" duration="360.00" routeLength="2185.07" waitingTime="33.00" waitingCount="4" stopTime="0.00" timeLoss="96.43" rerouteNo="0" devices="tripinfo_78" vType="DEFAULT_VEHTYPE" speedFactor="1.01" vaporized=""/>
    <tripinfo id="80" depart="241.00" departLane="279952229#0_0" departPos="5.10" departSpeed="0.00" departDelay="0.00" arrival="598.00" arrivalLane="-115602933#2_0" arrivalPos="75.56" arrivalSpeed="8.60" duration="357.00" routeLength="2185.07" waitingTime="27.00" waitingCount="4" stopTime="0.00" timeLoss="99.37" rerouteNo="0" devices="tripinfo_80" vType="DEFAULT_VEHTYPE" speedFactor="1.03" vaporized=""/>
    <tripinfo id="82" depart="247.00" departLane="279952229#0_0" departPos="5.10" departSpeed="0.00" departDelay="0.00" arrival="600.00" arrivalLane="-115602933#2_0" arrivalPos="75.56" arrivalSpeed="8.23" duration="353.00" routeLength="2185.07" waitingTime="23.00" waitingCount="3" stopTime="0.00" timeLoss="91.93" rerouteNo="0" devices="tripinfo_82" vType="DEFAULT_VEHTYPE" speedFactor="1.02" vaporized=""/>
    <tripinfo id="84" depart="253.00" departLane="279952229#0_0" departPos="5.10" departSpeed="0.00" departDelay="0.00" arrival="602.00" arrivalLane="-115602933#2_0" arrivalPos="75.56" arrivalSpeed="9.45" duration="349.00" routeLength="2185.07" waitingTime="20.00" waitingCount="2" stopTime="0.00" timeLoss="116.72" rerouteNo="0" devices="tripinfo_84" vType="DEFAULT_VEHTYPE" speedFactor="1.15" vaporized=""/>
    <tripinfo id="86" depart="259.00" departLane="279952229#0_0" departPos="5.10" departSpeed="0.00" departDelay="0.00" arrival="604.00" arrivalLane="-115602933#2_0" arrivalPos="75.56" arrivalSpeed="8.24" duration="345.00" routeLength="2185.07" waitingTime="17.00" waitingCount="2" stopTime="0.00" timeLoss="79.60" rerouteNo="0" devices="tripinfo_86" vType="DEFAULT_VEHTYPE" speedFactor="1.00" vaporized=""/>
    <tripinfo id="90" depart="271.00" departLane="279952229#0_0" departPos="5.10" departSpeed="0.00" departDelay="0.00" arrival="613.00" arrivalLane="-115602933#2_0" arrivalPos="75.56" arrivalSpeed="7.85" duration="342.00" routeLength="2185.07" waitingTime="22.00" waitingCount="3" stopTime="0.00" timeLoss="80.97" rerouteNo="0" devices="tripinfo_90" vType="DEFAULT_VEHTYPE" speedFactor="1.02" vaporized=""/>
    <tripinfo id="92" depart="277.00" departLane="279952229#0_0" departPos="5.10" departSpeed="0.00" departDelay="0.00" arrival="648.00" arrivalLane="-115602933#2_0" arrivalPos="75.56" arrivalSpeed="6.69" duration="371.00" routeLength="2185.07" waitingTime="7.00" waitingCount="1" stopTime="0.00" timeLoss="51.81" rerouteNo="0" devices="tripinfo_92" vType="DEFAULT_VEHTYPE" speedFactor="0.83" vaporized=""/>
    <tripinfo id="96" depart="289.00" departLane="279952229#0_0" departPos="5.10" departSpeed="0.00" departDelay="0.00" arrival="650.00" arrivalLane="-115602933#2_0" arrivalPos="75.56" arrivalSpeed="7.42" duration="361.00" routeLength="2185.07" waitingTime="5.00" waitingCount="1" stopTime="0.00" timeLoss="97.41" rerouteNo="0" devices="tripinfo_96" vType="DEFAULT_VEHTYPE" speedFactor="1.01" vaporized=""/>
    <tripinfo id="104" depart="313.00" departLane="279952229#0_0" departPos="5.10" departSpeed="0.00" departDelay="0.00" arrival="652.00" arrivalLane="-115602933#2_0" arrivalPos="75.56" arrivalSpeed="6.81" duration="339.00" routeLength="2185.07" waitingTime="0.00" waitingCount="0" stopTime="0.00" timeLoss="42.29" rerouteNo="0" devices="tripinfo_104" vType="DEFAULT_VEHTYPE" speedFactor="0.89" vaporized=""/>
    <tripinfo id="3" depart="7.00" departLane="115604053_0" departPos="5.10" departSpeed="0.00" departDelay="0.00" arrival="670.00" arrivalLane="-441496282#1_0" arrivalPos="70.64" arrivalSpeed="8.67" duration="663.00" routeLength="4116.75" waitingTime="119.00" waitingCount="4" stopTime="0.00" timeLoss="214.06" rerouteNo="0" devices="tripinfo_3" vType="DEFAULT_VEHTYPE" speedFactor="1.08" vaporized=""/>
    <tripinfo id="5" depart="13.00" departLane="115604053_0" departPos="5.10" departSpeed="0.00" departDelay="0.00" arrival="702.00" arrivalLane="-441496282#1_0" arrivalPos="70.64" arrivalSpeed="6.87" duration="689.00" routeLength="4116.75" waitingTime="13.00" waitingCount="3" stopTime="0.00" timeLoss="103.07" rerouteNo="0" devices="tripinfo_5" vType="DEFAULT_VEHTYPE" speedFactor="0.83" vaporized=""/>
    <tripinfo id="106" depart="319.00" departLane="279952229#0_0" departPos="5.10" departSpeed="0.00" departDelay="0.00" arrival="711.00" arrivalLane="-115602933#2_0" arrivalPos="75.56" arrivalSpeed="7.27" duration="392.00" routeLength="2185.07" waitingTime="69.00" waitingCount="3" stopTime="0.00" timeLoss="130.18" rerouteNo="0" devices="tripinfo_106" vType="DEFAULT_VEHTYPE" speedFactor="1.01" vaporized=""/>
    <tripinfo id="108" depart="325.00" departLane="279952229#0_0" departPos="5.10" departSpeed="0.00" departDelay="0.00" arrival="713.00" arrivalLane="-115602933#2_0" arrivalPos="75.56" arrivalSpeed="8.05" duration="388.00" routeLength="2185.07" waitingTime="67.00" waitingCount="3" stopTime="0.00" timeLoss="138.75" rerouteNo="0" devices="tripinfo_108" vType="DEFAULT_VEHTYPE" speedFactor="1.06" vaporized=""/>
    <tripinfo id="7" depart="19.00" departLane="115604053_0" departPos="5.10" departSpeed="0.00" departDelay="0.00" arrival="715.00" arrivalLane="-441496282#1_0" arrivalPos="70.64" arrivalSpeed="6.55" duration="696.00" routeLength="4116.75" waitingTime="29.00" waitingCount="4" stopTime="0.00" timeLoss="146.09" rerouteNo="0" devices="tripinfo_7" vType="DEFAULT_VEHTYPE" speedFactor="0.89" vaporized=""/>
    <tripinfo id="9" depart="25.00" departLane="115604053_0" departPos="5.10" departSpeed="0.00" departDelay="0.00" arrival="723.00" arrivalLane="-441496282#1_0" arrivalPos="70.64" arrivalSpeed="6.79" duration="698.00" routeLength="4116.75" waitingTime="22.00" waitingCount="3" stopTime="0.00" timeLoss="128.57" rerouteNo="0" devices="tripinfo_9" vType="DEFAULT_VEHTYPE" speedFactor="0.86" vaporized=""/>
    <tripinfo id="11" depart="31.00" departLane="115604053_0" departPos="5.10" departSpeed="0.00" departDelay="0.00" arrival="725.00" arrivalLane="-441496282#1_0" arrivalPos="70.64" arrivalSpeed="8.28" duration="694.00" routeLength="4116.75" waitingTime="20.00" waitingCount="2" stopTime="0.00" timeLoss="219.51" rerouteNo="0" devices="tripinfo_11" vType="DEFAULT_VEHTYPE" speedFactor="1.03" vaporized=""/>
    <tripinfo id="13" depart="37.00" departLane="115604053_0" departPos="5.10" departSpeed="0.00" departDelay="0.00" arrival="727.00" arrivalLane="-441496282#1_0" arrivalPos="70.64" arrivalSpeed="8.75" duration="690.00" routeLength="4116.75" waitingTime="18.00" waitingCount="2" stopTime="0.00" timeLoss="255.08" rerouteNo="0" devices="tripinfo_13" vType="DEFAULT_VEHTYPE" speedFactor="1.12" vaporized=""/>
    <tripinfo id="114" depart="343.00" departLane="279952229#0_0" departPos="5.10" departSpeed="0.00" departDelay="0.00" arrival="737.00" arrivalLane="-115602933#2_0" arrivalPos="75.56" arrivalSpeed="8.98" duration="394.00" routeLength="2185.07" waitingTime="86.00" waitingCount="4" stopTime="0.00" timeLoss="151.08" rerouteNo="0" devices="tripinfo_114" vType="DEFAULT_VEHTYPE" speedFactor="1.10" vaporized=""/>
    <tripinfo id="116" depart="349.00" departLane="279952229#0_0" departPos="5.10" departSpeed="0.00" departDelay="0.00" arrival="797.00" arrivalLane="-115602933#2_0" arrivalPos="75.56" arrivalSpeed="9.54" duration="448.00" routeLength="2185.07" waitingTime="131.00" waitingCount="6" stopTime="0.00" timeLoss="222.35" rerouteNo="0" devices="tripinfo_116" vType="DEFAULT_VEHTYPE" speedFactor="1.18" vaporized=""/>
    <tripinfo id="118" depart="356.00" departLane="279952229#0_0" departPos="5.10" departSpeed="0.00" departDelay="1.00" arrival="802.00" arrivalLane="-115602933#2_0" arrivalPos="75.56" arrivalSpeed="7.26" duration="446.00" routeLength="2185.07" waitingTime="106.00" waitingCount="5" stopTime="0.00" timeLoss="177.54" rerouteNo="0" devices="tripinfo_118" vType="DEFAULT_VEHTYPE" speedFactor="0.99" vaporized=""/>
    <tripinfo id="122" depart="367.00" departLane="279952229#0_0" departPos="5.10" departSpeed="0.00" departDelay="0.00" arrival="804.00" arrivalLane="-115602933#2_0" arrivalPos="75.56" arrivalSpeed="8.44" duration="437.00" routeLength="2185.07" waitingTime="104.00" waitingCount="4" stopTime="0.00" timeLoss="179.42" rerouteNo="0" devices="tripinfo_122" vType="DEFAULT_VEHTYPE" speedFactor="1.03" vaporized=""/>
    <tripinfo id="134" depart="403.00" departLane="279952229#0_0" departPos="5.10" departSpeed="0.00" departDelay="0.00" arrival="806.00" arrivalLane="-115602933#2_0" arrivalPos="75.56" arrivalSpeed="9.10" duration="403.00" routeLength="2185.07" waitingTime="109.00" waitingCount="4" stopTime="0.00" timeLoss="185.65" rerouteNo="0" devices="tripinfo_134" vType="DEFAULT_VEHTYPE" speedFactor="1.23" vaporized=""/>
    <tripinfo id="136" depart="409.00" departLane="279952229#0_0" departPos="5.10" departSpeed="0.00" departDelay="0.00" arrival="812.00" arrivalLane="-115602933#2_0" arrivalPos="75.56" arrivalSpeed="8.27" duration="403.00" routeLength="2185.07" waitingTime="88.00" waitingCount="4" stopTime="0.00" timeLoss="165.05" rerouteNo="0" devices="tripinfo_136" vType="DEFAULT_VEHTYPE" speedFactor="1.12" vaporized=""/>
    <tripinfo id="138" depart="415.00" departLane="279952229#0_0" departPos="5.10" departSpeed="0.00" departDelay="0.00" arrival="872.00" arrivalLane="-115602933#2_0" arrivalPos="75.56" arrivalSpeed="8.12" duration="457.00" routeLength="2185.07" waitingTime="113.00" waitingCount="4" stopTime="0.00" timeLoss="192.93" rerouteNo="0" devices="tripinfo_138" vType="DEFAULT_VEHTYPE" speedFactor="1.00" vaporized=""/>
    <tripinfo id="140" depart="422.00" departLane="279952229#0_0" departPos="5.10" departSpeed="0.00" departDelay="1.00" arrival="874.00" arrivalLane="-115602933#2_0" arrivalPos="75.56" arrivalSpeed="8.74" duration="452.00" routeLength="2185.07" waitingTime="110.00" waitingCount="4" stopTime="0.00" timeLoss="212.73" rerouteNo="0" devices="tripinfo_140" vType="DEFAULT_VEHTYPE" speedFactor="1.11" vaporized=""/>
    <tripinfo id="142" depart="427.00" departLane="279952229#0_0" departPos="5.10" departSpeed="0.00" departDelay="0.00" arrival="878.00" arrivalLane="-115602933#2_0" arrivalPos="75.56" arrivalSpeed="6.67" duration="451.00" routeLength="2185.07" waitingTime="105.00" waitingCount="4" stopTime="0.00" timeLoss="167.47" rerouteNo="0" devices="tripinfo_142" vType="DEFAULT_VEHTYPE" speedFactor="0.94" vaporized=""/>
    <tripinfo id="150" depart="451.00" departLane="279952229#0_0" departPos="5.10" departSpeed="0.00" departDelay="0.00" arrival="880.00" arrivalLane="-115602933#2_0" arrivalPos="75.56" arrivalSpeed="7.40" duration="429.00" routeLength="2185.07" waitingTime="92.00" waitingCount="3" stopTime="0.00" timeLoss="153.41" rerouteNo="0" devices="tripinfo_150" vType="DEFAULT_VEHTYPE" speedFactor="0.96" vaporized=""/>
    <tripinfo id="28" depart="85.00" departLane="279952229#0_0" departPos="5.10" departSpeed="0.00" departDelay="0.00" arrival="886.00" arrivalLane="-115602933#2_0" arrivalPos="75.56" arrivalSpeed="9.08" duration="801.00" routeLength="3794.54" waitingTime="304.00" waitingCount="1" stopTime="0.00" timeLoss="424.56" rerouteNo="0" devices="tripinfo_28" vType="DEFAULT_VEHTYPE" speedFactor="1.13" vaporized=""/>
    <tripinfo id="156" depart="470.00" departLane="279952229#0_0" departPos="5.10" departSpeed="0.00" departDelay="1.00" arrival="888.00" arrivalLane="-115602933#2_0" arrivalPos="75.56" arrivalSpeed="9.55" duration="418.00" routeLength="2185.07" waitingTime="94.00" waitingCount="4" stopTime="0.00" timeLoss="192.58" rerouteNo="0" devices="tripinfo_156" vType="DEFAULT_VEHTYPE" speedFactor="1.18" vaporized=""/>
    <tripinfo id="158" depart="475.00" departLane="279952229#0_0" departPos="5.10" departSpeed="0.00" departDelay="0.00" arrival="967.00" arrivalLane="-115602933#2_0" arrivalPos="75.56" arrivalSpeed="6.96" duration="492.00" routeLength="2185.07" waitingTime="137.00" waitingCount="4" stopTime="0.00" timeLoss="200.12" rerouteNo="0" devices="tripinfo_158" vType="DEFAULT_VEHTYPE" speedFactor="0.91" vaporized=""/>
    <tripinfo id="162" depart="487.00" departLane="279952229#0_0" departPos="5.10" departSpeed="0.00" departDelay="0.00" arrival="970.00" arrivalLane="-115602933#2_0" arrivalPos="75.56" arrivalSpeed="7.90" duration="483.00" routeLength="2185.07" waitingTime="138.00" waitingCount="5" stopTime="0.00" timeLoss="215.18" rerouteNo="0" devices="tripinfo_162" vType="DEFAULT_VEHTYPE" speedFactor="0.99" vaporized=""/>
    <tripinfo id="164" depart="493.00" departLane="279952229#0_0" departPos="5.10" departSpeed="0.00" departDelay="0.00" arrival="984.00" arrivalLane="-115602933#2_0" arrivalPos="75.56" arrivalSpeed="7.46" duration="491.00" routeLength="2185.07" waitingTime="147.00" waitingCount="6" stopTime="0.00" timeLoss="238.29" rerouteNo="0" devices="tripinfo_164" vType="DEFAULT_VEHTYPE" speedFactor="1.05" vaporized=""/>
    <tripinfo id="168" depart="505.00" departLane="279952229#0_0" departPos="5.10" departSpeed="0.00" departDelay="0.00" arrival="988.00" arrivalLane="-115602933#2_0" arrivalPos="75.56" arrivalSpeed="8.17" duration="483.00" routeLength="2185.07" waitingTime="144.00" waitingCount="6" stopTime="0.00" timeLoss="212.27" rerouteNo="0" devices="tripinfo_168" vType="DEFAULT_VEHTYPE" speedFactor="0.98" vaporized=""/>
    <tripinfo id="172" depart="517.00" departLane="279952229#0_0" departPos="5.10" departSpeed="0.00" departDelay="0.00" arrival="997.00" arrivalLane="-115602933#2_0" arrivalPos="75.56" arrivalSpeed="7.11" duration="480.00" routeLength="2185.07" waitingTime="122.00" waitingCount="5" stopTime="0.00" timeLoss="182.65" rerouteNo="0" devices="tripinfo_172" vType="DEFAULT_VEHTYPE" speedFactor="0.89" vaporized=""/>
    <tripinfo id="174" depart="523.00" departLane="279952229#0_0" departPos="5.10" departSpeed="0.00" departDelay="0.00" arrival="1000.00" arrivalLane="-115602933#2_0" arrivalPos="75.56" arrivalSpeed="7.02" duration="477.00" routeLength="2185.07" waitingTime="124.00" waitingCount="4" stopTime="0.00" timeLoss="198.18" rerouteNo="0" devices="tripinfo_174" vType="DEFAULT_VEHTYPE" speedFactor="0.96" vaporized=""/>
    <tripinfo id="178" depart="535.00" departLane="279952229#0_0" departPos="5.10" departSpeed="0.00" departDelay="0.00" arrival="1002.00" arrivalLane="-115602933#2_0" arrivalPos="75.56" arrivalSpeed="7.83" duration="467.00" routeLength="2185.07" waitingTime="124.00" waitingCount="5" stopTime="0.00" timeLoss="221.76" rerouteNo="0" devices="tripinfo_178" vType="DEFAULT_VEHTYPE" speedFactor="1.08" vaporized=""/>
    <tripinfo id="182" depart="547.00" departLane="279952229#0_0" departPos="5.10" departSpeed="0.00" departDelay="0.00" arrival="1005.00" arrivalLane="-115602933#2_0" arrivalPos="75.56" arrivalSpeed="8.10" duration="458.00" routeLength="2185.07" waitingTime="121.00" waitingCount="5" stopTime="0.00" timeLoss="199.28" rerouteNo="0" devices="tripinfo_182" vType="DEFAULT_VEHTYPE" speedFactor="1.03" vaporized=""/>
    <tripinfo id="184" depart="553.00" departLane="279952229#0_0" departPos="5.10" departSpeed="0.00" departDelay="0.00" arrival="1013.00" arrivalLane="-115602933#2_0" arrivalPos="75.56" arrivalSpeed="7.21" duration="460.00" routeLength="2185.07" waitingTime="101.00" waitingCount="5" stopTime="0.00" timeLoss="178.56" rerouteNo="0" devices="tripinfo_184" vType="DEFAULT_VEHTYPE" speedFactor="0.94" vaporized=""/>
    <tripinfo id="188" depart="565.00" departLane="279952229#0_0" departPos="5.10" departSpeed="0.00" departDelay="0.00" arrival="1016.00" arrivalLane="-115602933#2_0" arrivalPos="75.56" arrivalSpeed="8.07" duration="451.00" routeLength="2185.07" waitingTime="96.00" waitingCount="5" stopTime="0.00" timeLoss="176.74" rerouteNo="0" devices="tripinfo_188" vType="DEFAULT_VEHTYPE" speedFactor="0.97" vaporized=""/>
    <tripinfo id="190" depart="571.00" departLane="279952229#0_0" departPos="5.10" departSpeed="0.00" departDelay="0.00" arrival="1021.00" arrivalLane="-115602933#2_0" arrivalPos="75.56" arrivalSpeed="6.22" duration="450.00" routeLength="2185.07" waitingTime="78.00" waitingCount="3" stopTime="0.00" timeLoss="155.42" rerouteNo="0" devices="tripinfo_190" vType="DEFAULT_VEHTYPE" speedFactor="0.90" vaporized=""/>
    <tripinfo id="192" depart="577.00" departLane="279952229#0_0" departPos="5.10" departSpeed="0.00" departDelay="0.00" arrival="1023.00" arrivalLane="-115602933#2_0" arrivalPos="75.56" arrivalSpeed="7.87" duration="446.00" routeLength="2185.07" waitingTime="76.00" waitingCount="2" stopTime="0.00" timeLoss="203.14" rerouteNo="0" devices="tripinfo_192" vType="DEFAULT_VEHTYPE" speedFactor="1.10" vaporized=""/>
    <tripinfo id="194" depart="583.00" departLane="279952229#0_0" departPos="5.10" departSpeed="0.00" departDelay="0.00" arrival="1025.00" arrivalLane="-115602933#2_0" arrivalPos="75.56" arrivalSpeed="8.13" duration="442.00" routeLength="2185.07" waitingTime="76.00" waitingCount="2" stopTime="0.00" timeLoss="176.41" rerouteNo="0" devices="tripinfo_194" vType="DEFAULT_VEHTYPE" speedFactor="1.00" vaporized=""/>
    <tripinfo id="200" depart="601.00" departLane="279952229#0_0" departPos="5.10" departSpeed="0.00" departDelay="0.00" arrival="1028.00" arrivalLane="-115602933#2_0" arrivalPos="75.56" arrivalSpeed="7.48" duration="427.00" routeLength="2185.07" waitingTime="71.00" waitingCount="3" stopTime="0.00" timeLoss="147.08" rerouteNo="0" devices="tripinfo_200" vType="DEFAULT_VEHTYPE" speedFactor="0.95" vaporized=""/>
    <tripinfo id="204" depart="613.00" departLane="279952229#0_0" departPos="5.10" departSpeed="0.00" departDelay="0.00" arrival="1030.00" arrivalLane="-115602933#2_0" arrivalPos="75.56" arrivalSpeed="8.76" duration="417.00" routeLength="2185.07" waitingTime="69.00" waitingCount="3" stopTime="0.00" timeLoss="168.41" rerouteNo="0" devices="tripinfo_204" vType="DEFAULT_VEHTYPE" speedFactor="1.07" vaporized=""/>
    <tripinfo id="206" depart="619.00" departLane="279952229#0_0" departPos="5.10" departSpeed="0.00" departDelay="0.00" arrival="1033.00" arrivalLane="-115602933#2_0" arrivalPos="75.56" arrivalSpeed="7.30" duration="414.00" routeLength="2185.07" waitingTime="71.00" waitingCount="3" stopTime="0.00" timeLoss="149.03" rerouteNo="0" devices="tripinfo_206" vType="DEFAULT_VEHTYPE" speedFactor="1.00" vaporized=""/>
    <tripinfo id="208" depart="625.00" departLane="279952229#0_0" departPos="5.10" departSpeed="0.00" departDelay="0.00" arrival="1036.00" arrivalLane="-115602933#2_0" arrivalPos="75.56" arrivalSpeed="7.01" duration="411.00" routeLength="2185.07" waitingTime="58.00" waitingCount="2" stopTime="0.00" timeLoss="135.07" rerouteNo="0" devices="tripinfo_208" vType="DEFAULT_VEHTYPE" speedFactor="0.96" vaporized=""/>