<?xml version="1.0" encoding="UTF-8"?>

<!-- generated on 2024-01-24 17:00:24 by Eclipse SUMO sumo Version 1.19.0
<configuration xmlns:xsi="http://www.w3.org/2001/XMLSchema-instance" xsi:noNamespaceSchemaLocation="http://sumo.dlr.de/xsd/sumoConfiguration.xsd">

    <input>
        <net-file value="Network_and_config/csomor1.net.xml"/>
        <route-files value="Network_and_config/test.rou.xml"/>
    </input>

    <output>
        <summary-output value="Network_and_config/summary.xml"/>
        <tripinfo-output value="Network_and_config/tripinfo.xml"/>
    </output>

    <traci_server>
        <remote-port value="55228"/>
    </traci_server>

</configuration>
-->

<tripinfos xmlns:xsi="http://www.w3.org/2001/XMLSchema-instance" xsi:noNamespaceSchemaLocation="http://sumo.dlr.de/xsd/tripinfo_file.xsd">
    <tripinfo id="0" depart="1.00" departLane="279952229#0_0" departPos="5.10" departSpeed="0.00" departDelay="0.00" arrival="88.00" arrivalLane="-115602933#2_0" arrivalPos="75.56" arrivalSpeed="8.35" duration="87.00" routeLength="668.45" waitingTime="0.00" waitingCount="0" stopTime="0.00" timeLoss="10.39" rerouteNo="0" devices="tripinfo_0" vType="DEFAULT_VEHTYPE" speedFactor="1.06" vaporized=""/>
    <tripinfo id="1" depart="4.00" departLane="279952229#0_0" departPos="5.10" departSpeed="0.00" departDelay="3.00" arrival="102.00" arrivalLane="-115602933#2_0" arrivalPos="75.56" arrivalSpeed="7.50" duration="98.00" routeLength="669.33" waitingTime="0.00" waitingCount="0" stopTime="0.00" timeLoss="10.96" rerouteNo="0" devices="tripinfo_1" vType="DEFAULT_VEHTYPE" speedFactor="0.94" vaporized=""/>
    <tripinfo id="2" depart="7.00" departLane="279952229#0_0" departPos="5.10" departSpeed="0.00" departDelay="0.00" arrival="104.00" arrivalLane="-115602933#2_0" arrivalPos="75.56" arrivalSpeed="7.68" duration="97.00" routeLength="669.33" waitingTime="0.00" waitingCount="0" stopTime="0.00" timeLoss="16.20" rerouteNo="0" devices="tripinfo_2" vType="DEFAULT_VEHTYPE" speedFactor="1.01" vaporized=""/>
    <tripinfo id="4" depart="13.00" departLane="279952229#0_0" departPos="5.10" departSpeed="0.00" departDelay="0.00" arrival="106.00" arrivalLane="-115602933#2_0" arrivalPos="75.56" arrivalSpeed="7.69" duration="93.00" routeLength="669.33" waitingTime="0.00" waitingCount="0" stopTime="0.00" timeLoss="13.99" rerouteNo="0" devices="tripinfo_4" vType="DEFAULT_VEHTYPE" speedFactor="1.03" vaporized=""/>
    <tripinfo id="7" depart="23.00" departLane="279952229#0_0" departPos="5.10" departSpeed="0.00" departDelay="4.00" arrival="127.00" arrivalLane="-115602933#2_0" arrivalPos="75.56" arrivalSpeed="7.26" duration="104.00" routeLength="668.45" waitingTime="0.00" waitingCount="0" stopTime="0.00" timeLoss="12.04" rerouteNo="0" devices="tripinfo_7" vType="DEFAULT_VEHTYPE" speedFactor="0.89" vaporized=""/>
    <tripinfo id="8" depart="26.00" departLane="279952229#0_0" departPos="5.10" departSpeed="0.00" departDelay="1.00" arrival="129.00" arrivalLane="-115602933#2_0" arrivalPos="75.56" arrivalSpeed="7.40" duration="103.00" routeLength="668.45" waitingTime="0.00" waitingCount="0" stopTime="0.00" timeLoss="16.12" rerouteNo="0" devices="tripinfo_8" vType="DEFAULT_VEHTYPE" speedFactor="0.94" vaporized=""/>
    <tripinfo id="9" depart="29.00" departLane="279952229#0_0" departPos="5.10" departSpeed="0.00" departDelay="4.00" arrival="136.00" arrivalLane="-115602933#2_0" arrivalPos="75.56" arrivalSpeed="5.92" duration="107.00" routeLength="669.33" waitingTime="0.00" waitingCount="0" stopTime="0.00" timeLoss="12.32" rerouteNo="0" devices="tripinfo_9" vType="DEFAULT_VEHTYPE" speedFactor="0.86" vaporized=""/>
    <tripinfo id="10" depart="32.00" departLane="279952229#0_0" departPos="5.10" departSpeed="0.00" departDelay="1.00" arrival="138.00" arrivalLane="-115602933#2_0" arrivalPos="75.56" arrivalSpeed="8.85" duration="106.00" routeLength="669.33" waitingTime="0.00" waitingCount="0" stopTime="0.00" timeLoss="31.33" rerouteNo="0" devices="tripinfo_10" vType="DEFAULT_VEHTYPE" speedFactor="1.09" vaporized=""/>
    <tripinfo id="11" depart="35.00" departLane="279952229#0_0" departPos="5.10" departSpeed="0.00" departDelay="4.00" arrival="140.00" arrivalLane="-115602933#2_0" arrivalPos="75.56" arrivalSpeed="8.46" duration="105.00" routeLength="668.45" waitingTime="7.00" waitingCount="1" stopTime="0.00" timeLoss="25.83" rerouteNo="0" devices="tripinfo_11" vType="DEFAULT_VEHTYPE" speedFactor="1.03" vaporized=""/>
    <tripinfo id="12" depart="38.00" departLane="279952229#0_0" departPos="5.10" departSpeed="0.00" departDelay="1.00" arrival="142.00" arrivalLane="-115602933#2_0" arrivalPos="75.56" arrivalSpeed="7.73" duration="104.00" routeLength="668.45" waitingTime="6.00" waitingCount="1" stopTime="0.00" timeLoss="26.69" rerouteNo="0" devices="tripinfo_12" vType="DEFAULT_VEHTYPE" speedFactor="1.05" vaporized=""/>
    <tripinfo id="14" depart="44.00" departLane="279952229#0_0" departPos="5.10" departSpeed="0.00" departDelay="1.00" arrival="145.00" arrivalLane="-115602933#2_0" arrivalPos="75.56" arrivalSpeed="8.16" duration="101.00" routeLength="668.45" waitingTime="4.00" waitingCount="1" stopTime="0.00" timeLoss="18.83" rerouteNo="0" devices="tripinfo_14" vType="DEFAULT_VEHTYPE" speedFactor="0.99" vaporized=""/>
    <tripinfo id="17" depart="53.00" departLane="279952229#0_0" departPos="5.10" departSpeed="0.00" departDelay="4.00" arrival="151.00" arrivalLane="-115602933#2_0" arrivalPos="75.56" arrivalSpeed="7.02" duration="98.00" routeLength="669.33" waitingTime="0.00" waitingCount="0" stopTime="0.00" timeLoss="11.72" rerouteNo="0" devices="tripinfo_17" vType="DEFAULT_VEHTYPE" speedFactor="0.94" vaporized=""/>
    <tripinfo id="16" depart="50.00" departLane="279952229#0_0" departPos="5.10" departSpeed="0.00" departDelay="1.00" arrival="156.00" arrivalLane="-115602933#2_0" arrivalPos="75.56" arrivalSpeed="6.77" duration="106.00" routeLength="668.45" waitingTime="0.00" waitingCount="0" stopTime="0.00" timeLoss="13.55" rerouteNo="0" devices="tripinfo_16" vType="DEFAULT_VEHTYPE" speedFactor="0.88" vaporized=""/>
    <tripinfo id="18" depart="56.00" departLane="279952229#0_0" departPos="5.10" departSpeed="0.00" departDelay="1.00" arrival="158.00" arrivalLane="-115602933#2_0" arrivalPos="75.56" arrivalSpeed="7.51" duration="102.00" routeLength="668.45" waitingTime="0.00" waitingCount="0" stopTime="0.00" timeLoss="15.30" rerouteNo="0" devices="tripinfo_18" vType="DEFAULT_VEHTYPE" speedFactor="0.94" vaporized=""/>
    <tripinfo id="19" depart="59.00" departLane="279952229#0_0" departPos="5.10" departSpeed="0.00" departDelay="4.00" arrival="160.00" arrivalLane="-115602933#2_0" arrivalPos="75.56" arrivalSpeed="8.86" duration="101.00" routeLength="668.45" waitingTime="0.00" waitingCount="0" stopTime="0.00" timeLoss="30.77" rerouteNo="0" devices="tripinfo_19" vType="DEFAULT_VEHTYPE" speedFactor="1.16" vaporized=""/>
    <tripinfo id="3" depart="10.00" departLane="279952229#0_0" departPos="5.10" departSpeed="0.00" departDelay="3.00" arrival="162.00" arrivalLane="-115602933#2_0" arrivalPos="75.56" arrivalSpeed="7.79" duration="152.00" routeLength="1200.24" waitingTime="0.00" waitingCount="0" stopTime="0.00" timeLoss="17.83" rerouteNo="0" devices="tripinfo_3" vType="DEFAULT_VEHTYPE" speedFactor="1.08" vaporized=""/>
    <tripinfo id="20" depart="62.00" departLane="279952229#0_0" departPos="5.10" departSpeed="0.00" departDelay="1.00" arrival="167.00" arrivalLane="-115602933#2_0" arrivalPos="75.56" arrivalSpeed="7.83" duration="105.00" routeLength="668.45" waitingTime="4.00" waitingCount="1" stopTime="0.00" timeLoss="24.82" rerouteNo="0" devices="tripinfo_20" vType="DEFAULT_VEHTYPE" speedFactor="1.02" vaporized=""/>
    <tripinfo id="23" depart="71.00" departLane="279952229#0_0" departPos="5.10" departSpeed="0.00" departDelay="4.00" arrival="175.00" arrivalLane="-115602933#2_0" arrivalPos="75.56" arrivalSpeed="6.77" duration="104.00" routeLength="669.33" waitingTime="0.00" waitingCount="0" stopTime="0.00" timeLoss="12.59" rerouteNo="0" devices="tripinfo_23" vType="DEFAULT_VEHTYPE" speedFactor="0.89" vaporized=""/>
    <tripinfo id="31" depart="96.00" departLane="279952229#0_0" departPos="5.10" departSpeed="0.00" departDelay="5.00" arrival="177.00" arrivalLane="-115602933#2_0" arrivalPos="75.56" arrivalSpeed="8.82" duration="81.00" routeLength="669.33" waitingTime="0.00" waitingCount="0" stopTime="0.00" timeLoss="10.37" rerouteNo="0" devices="tripinfo_31" vType="DEFAULT_VEHTYPE" speedFactor="1.15" vaporized=""/>
    <tripinfo id="21" depart="65.00" departLane="279952229#0_0" departPos="5.10" departSpeed="0.00" departDelay="4.00" arrival="184.00" arrivalLane="-115602933#2_0" arrivalPos="75.56" arrivalSpeed="8.06" duration="119.00" routeLength="668.45" waitingTime="15.00" waitingCount="2" stopTime="0.00" timeLoss="38.37" rerouteNo="0" devices="tripinfo_21" vType="DEFAULT_VEHTYPE" speedFactor="1.01" vaporized=""/>
    <tripinfo id="24" depart="74.00" departLane="279952229#0_0" departPos="5.10" departSpeed="0.00" departDelay="1.00" arrival="192.00" arrivalLane="-115602933#2_0" arrivalPos="75.56" arrivalSpeed="6.33" duration="118.00" routeLength="668.45" waitingTime="4.00" waitingCount="1" stopTime="0.00" timeLoss="19.35" rerouteNo="0" devices="tripinfo_24" vType="DEFAULT_VEHTYPE" speedFactor="0.83" vaporized=""/>
    <tripinfo id="32" depart="99.00" departLane="279952229#0_0" departPos="5.10" departSpeed="0.00" departDelay="2.00" arrival="194.00" arrivalLane="-115602933#2_0" arrivalPos="75.56" arrivalSpeed="7.55" duration="95.00" routeLength="669.33" waitingTime="0.00" waitingCount="0" stopTime="0.00" timeLoss="13.93" rerouteNo="0" devices="tripinfo_32" vType="DEFAULT_VEHTYPE" speedFactor="1.01" vaporized=""/>
    <tripinfo id="35" depart="108.00" departLane="279952229#0_0" departPos="5.10" departSpeed="0.00" departDelay="5.00" arrival="199.00" arrivalLane="-115602933#2_0" arrivalPos="75.56" arrivalSpeed="7.42" duration="91.00" routeLength="669.33" waitingTime="0.00" waitingCount="0" stopTime="0.00" timeLoss="10.75" rerouteNo="0" devices="tripinfo_35" vType="DEFAULT_VEHTYPE" speedFactor="1.02" vaporized=""/>
    <tripinfo id="38" depart="117.00" departLane="279952229#0_0" departPos="5.10" departSpeed="0.00" departDelay="2.00" arrival="201.00" arrivalLane="-115602933#2_0" arrivalPos="75.56" arrivalSpeed="8.74" duration="84.00" routeLength="669.33" waitingTime="0.00" waitingCount="0" stopTime="0.00" timeLoss="9.89" rerouteNo="0" devices="tripinfo_38" vType="DEFAULT_VEHTYPE" speedFactor="1.10" vaporized=""/>
    <tripinfo id="5" depart="16.00" departLane="279952229#0_0" departPos="5.10" departSpeed="0.00" departDelay="3.00" arrival="216.00" arrivalLane="-115602933#2_0" arrivalPos="75.56" arrivalSpeed="5.67" duration="200.00" routeLength="1200.24" waitingTime="0.00" waitingCount="0" stopTime="0.00" timeLoss="25.24" rerouteNo="0" devices="tripinfo_5" vType="DEFAULT_VEHTYPE" speedFactor="0.83" vaporized=""/>
    <tripinfo id="6" depart="19.00" departLane="279952229#0_0" departPos="5.10" departSpeed="0.00" departDelay="0.00" arrival="218.00" arrivalLane="-115602933#2_0" arrivalPos="75.56" arrivalSpeed="7.95" duration="199.00" routeLength="1200.24" waitingTime="1.00" waitingCount="1" stopTime="0.00" timeLoss="59.89" rerouteNo="0" devices="tripinfo_6" vType="DEFAULT_VEHTYPE" speedFactor="1.05" vaporized=""/>
    <tripinfo id="13" depart="41.00" departLane="279952229#0_0" departPos="5.10" departSpeed="0.00" departDelay="4.00" arrival="220.00" arrivalLane="-115602933#2_0" arrivalPos="75.56" arrivalSpeed="8.70" duration="179.00" routeLength="1200.24" waitingTime="0.00" waitingCount="0" stopTime="0.00" timeLoss="49.34" rerouteNo="0" devices="tripinfo_13" vType="DEFAULT_VEHTYPE" speedFactor="1.12" vaporized=""/>
    <tripinfo id="39" depart="120.00" departLane="279952229#0_0" departPos="5.10" departSpeed="0.00" departDelay="5.00" arrival="222.00" arrivalLane="-115602933#2_0" arrivalPos="75.56" arrivalSpeed="6.67" duration="102.00" routeLength="669.33" waitingTime="0.00" waitingCount="0" stopTime="0.00" timeLoss="12.01" rerouteNo="0" devices="tripinfo_39" vType="DEFAULT_VEHTYPE" speedFactor="0.90" vaporized=""/>
    <tripinfo id="25" depart="77.00" departLane="279952229#0_0" departPos="5.10" departSpeed="0.00" departDelay="4.00" arrival="226.00" arrivalLane="-115602933#2_0" arrivalPos="75.56" arrivalSpeed="6.48" duration="149.00" routeLength="668.45" waitingTime="33.00" waitingCount="2" stopTime="0.00" timeLoss="55.94" rerouteNo="0" devices="tripinfo_25" vType="DEFAULT_VEHTYPE" speedFactor="0.87" vaporized=""/>
    <tripinfo id="26" depart="80.00" departLane="279952229#0_0" departPos="5.10" departSpeed="0.00" departDelay="1.00" arrival="228.00" arrivalLane="-115602933#2_0" arrivalPos="75.56" arrivalSpeed="6.65" duration="148.00" routeLength="668.45" waitingTime="32.00" waitingCount="2" stopTime="0.00" timeLoss="59.80" rerouteNo="0" devices="tripinfo_26" vType="DEFAULT_VEHTYPE" speedFactor="0.92" vaporized=""/>
    <tripinfo id="27" depart="83.00" departLane="279952229#0_0" departPos="5.10" departSpeed="0.00" departDelay="4.00" arrival="231.00" arrivalLane="-115602933#2_0" arrivalPos="75.56" arrivalSpeed="7.50" duration="148.00" routeLength="668.45" waitingTime="28.00" waitingCount="2" stopTime="0.00" timeLoss="62.15" rerouteNo="0" devices="tripinfo_27" vType="DEFAULT_VEHTYPE" speedFactor="0.95" vaporized=""/>
    <tripinfo id="46" depart="141.00" departLane="279952229#0_0" departPos="5.10" departSpeed="0.00" departDelay="2.00" arrival="233.00" arrivalLane="-115602933#2_0" arrivalPos="75.56" arrivalSpeed="7.63" duration="92.00" routeLength="669.33" waitingTime="0.00" waitingCount="0" stopTime="0.00" timeLoss="10.57" rerouteNo="0" devices="tripinfo_46" vType="DEFAULT_VEHTYPE" speedFactor="1.00" vaporized=""/>
    <tripinfo id="15" depart="47.00" departLane="279952229#0_0" departPos="5.10" departSpeed="0.00" departDelay="4.00" arrival="238.00" arrivalLane="-115602933#2_0" arrivalPos="75.56" arrivalSpeed="6.98" duration="191.00" routeLength="1200.24" waitingTime="14.00" waitingCount="1" stopTime="0.00" timeLoss="34.16" rerouteNo="0" devices="tripinfo_15" vType="DEFAULT_VEHTYPE" speedFactor="0.93" vaporized=""/>
    <tripinfo id="40" depart="123.00" departLane="279952229#0_0" departPos="5.10" departSpeed="0.00" departDelay="2.00" arrival="241.00" arrivalLane="-115602933#2_0" arrivalPos="75.56" arrivalSpeed="7.47" duration="118.00" routeLength="668.45" waitingTime="20.00" waitingCount="2" stopTime="0.00" timeLoss="39.06" rerouteNo="0" devices="tripinfo_40" vType="DEFAULT_VEHTYPE" speedFactor="1.03" vaporized=""/>
    <tripinfo id="48" depart="147.00" departLane="279952229#0_0" departPos="5.10" departSpeed="0.00" departDelay="2.00" arrival="251.00" arrivalLane="-115602933#2_0" arrivalPos="75.56" arrivalSpeed="6.64" duration="104.00" routeLength="669.33" waitingTime="0.00" waitingCount="0" stopTime="0.00" timeLoss="11.27" rerouteNo="0" devices="tripinfo_48" vType="DEFAULT_VEHTYPE" speedFactor="0.88" vaporized=""/>
    <tripinfo id="22" depart="68.00" departLane="279952229#0_0" departPos="5.10" departSpeed="0.00" departDelay="1.00" arrival="255.00" arrivalLane="-115602933#2_0" arrivalPos="75.56" arrivalSpeed="7.58" duration="187.00" routeLength="1200.24" waitingTime="14.00" waitingCount="1" stopTime="0.00" timeLoss="38.21" rerouteNo="0" devices="tripinfo_22" vType="DEFAULT_VEHTYPE" speedFactor="0.97" vaporized=""/>
    <tripinfo id="28" depart="87.00" departLane="279952229#0_0" departPos="5.10" departSpeed="0.00" departDelay="2.00" arrival="257.00" arrivalLane="-115602933#2_0" arrivalPos="75.56" arrivalSpeed="9.15" duration="170.00" routeLength="1200.24" waitingTime="15.00" waitingCount="2" stopTime="0.00" timeLoss="41.55" rerouteNo="0" devices="tripinfo_28" vType="DEFAULT_VEHTYPE" speedFactor="1.13" vaporized=""/>
    <tripinfo id="41" depart="126.00" departLane="279952229#0_0" departPos="5.10" departSpeed="0.00" departDelay="5.00" arrival="261.00" arrivalLane="-115602933#2_0" arrivalPos="75.56" arrivalSpeed="6.78" duration="135.00" routeLength="668.45" waitingTime="30.00" waitingCount="3" stopTime="0.00" timeLoss="50.09" rerouteNo="0" devices="tripinfo_41" vType="DEFAULT_VEHTYPE" speedFactor="0.96" vaporized=""/>
    <tripinfo id="43" depart="132.00" departLane="279952229#0_0" departPos="5.10" departSpeed="0.00" departDelay="5.00" arrival="263.00" arrivalLane="-115602933#2_0" arrivalPos="75.56" arrivalSpeed="8.53" duration="131.00" routeLength="668.45" waitingTime="26.00" waitingCount="3" stopTime="0.00" timeLoss="52.37" rerouteNo="0" devices="tripinfo_43" vType="DEFAULT_VEHTYPE" speedFactor="1.04" vaporized=""/>
    <tripinfo id="45" depart="138.00" departLane="279952229#0_0" departPos="5.10" departSpeed="0.00" departDelay="5.00" arrival="265.00" arrivalLane="-115602933#2_0" arrivalPos="75.56" arrivalSpeed="8.99" duration="127.00" routeLength="668.45" waitingTime="22.00" waitingCount="3" stopTime="0.00" timeLoss="51.96" rerouteNo="0" devices="tripinfo_45" vType="DEFAULT_VEHTYPE" speedFactor="1.09" vaporized=""/>
    <tripinfo id="47" depart="144.00" departLane="279952229#0_0" departPos="5.10" departSpeed="0.00" departDelay="5.00" arrival="269.00" arrivalLane="-115602933#2_0" arrivalPos="75.56" arrivalSpeed="6.52" duration="125.00" routeLength="668.45" waitingTime="13.00" waitingCount="2" stopTime="0.00" timeLoss="35.16" rerouteNo="0" devices="tripinfo_47" vType="DEFAULT_VEHTYPE" speedFactor="0.90" vaporized=""/>
    <tripinfo id="49" depart="149.00" departLane="279952229#0_0" departPos="5.10" departSpeed="0.00" departDelay="4.00" arrival="274.00" arrivalLane="-115602933#2_0" arrivalPos="75.56" arrivalSpeed="6.53" duration="125.00" routeLength="668.45" waitingTime="9.00" waitingCount="1" stopTime="0.00" timeLoss="29.80" rerouteNo="0" devices="tripinfo_49" vType="DEFAULT_VEHTYPE" speedFactor="0.85" vaporized=""/>
    <tripinfo id="59" depart="180.00" departLane="279952229#0_0" departPos="5.10" departSpeed="0.00" departDelay="5.00" arrival="276.00" arrivalLane="-115602933#2_0" arrivalPos="75.56" arrivalSpeed="6.85" duration="96.00" routeLength="669.33" waitingTime="0.00" waitingCount="0" stopTime="0.00" timeLoss="12.25" rerouteNo="0" devices="tripinfo_59" vType="DEFAULT_VEHTYPE" speedFactor="0.97" vaporized=""/>
    <tripinfo id="60" depart="183.00" departLane="279952229#0_0" departPos="5.10" departSpeed="0.00" departDelay="2.00" arrival="278.00" arrivalLane="-115602933#2_0" arrivalPos="75.56" arrivalSpeed="8.78" duration="95.00" routeLength="669.33" waitingTime="0.00" waitingCount="0" stopTime="0.00" timeLoss="20.21" rerouteNo="0" devices="tripinfo_60" vType="DEFAULT_VEHTYPE" speedFactor="1.08" vaporized=""/>
    <tripinfo id="61" depart="186.00" departLane="279952229#0_0" departPos="5.10" departSpeed="0.00" departDelay="5.00" arrival="280.00" arrivalLane="-115602933#2_0" arrivalPos="75.56" arrivalSpeed="8.30" duration="94.00" routeLength="669.33" waitingTime="0.00" waitingCount="0" stopTime="0.00" timeLoss="21.69" rerouteNo="0" devices="tripinfo_61" vType="DEFAULT_VEHTYPE" speedFactor="1.12" vaporized=""/>
    <tripinfo id="29" depart="90.00" departLane="279952229#0_0" departPos="5.10" departSpeed="0.00" departDelay="5.00" arrival="284.00" arrivalLane="-115602933#2_0" arrivalPos="75.56" arrivalSpeed="6.49" duration="194.00" routeLength="1200.24" waitingTime="9.00" waitingCount="2" stopTime="0.00" timeLoss="37.98" rerouteNo="0" devices="tripinfo_29" vType="DEFAULT_VEHTYPE" speedFactor="0.93" vaporized=""/>
    <tripinfo id="30" depart="93.00" departLane="279952229#0_0" departPos="5.10" departSpeed="0.00" departDelay="2.00" arrival="286.00" arrivalLane="-115602933#2_0" arrivalPos="75.56" arrivalSpeed="8.56" duration="193.00" routeLength="1200.24" waitingTime="8.00" waitingCount="2" stopTime="0.00" timeLoss="69.52" rerouteNo="0" devices="tripinfo_30" vType="DEFAULT_VEHTYPE" speedFactor="1.18" vaporized=""/>
    <tripinfo id="33" depart="102.00" departLane="279952229#0_0" departPos="5.10" departSpeed="0.00" departDelay="5.00" arrival="288.00" arrivalLane="-115602933#2_0" arrivalPos="75.56" arrivalSpeed="8.93" duration="186.00" routeLength="1200.24" waitingTime="7.00" waitingCount="2" stopTime="0.00" timeLoss="61.80" rerouteNo="0" devices="tripinfo_33" vType="DEFAULT_VEHTYPE" speedFactor="1.17" vaporized=""/>
    <tripinfo id="34" depart="105.00" departLane="279952229#0_0" departPos="5.10" departSpeed="0.00" departDelay="2.00" arrival="290.00" arrivalLane="-115602933#2_0" arrivalPos="75.56" arrivalSpeed="7.32" duration="185.00" routeLength="1200.24" waitingTime="5.00" waitingCount="1" stopTime="0.00" timeLoss="39.55" rerouteNo="0" devices="tripinfo_34" vType="DEFAULT_VEHTYPE" speedFactor="0.99" vaporized=""/>
    <tripinfo id="36" depart="111.00" departLane="279952229#0_0" departPos="5.10" departSpeed="0.00" departDelay="2.00" arrival="293.00" arrivalLane="-115602933#2_0" arrivalPos="75.56" arrivalSpeed="7.38" duration="182.00" routeLength="1200.24" waitingTime="10.00" waitingCount="1" stopTime="0.00" timeLoss="32.89" rerouteNo="0" devices="tripinfo_36" vType="DEFAULT_VEHTYPE" speedFactor="0.97" vaporized=""/>
    <tripinfo id="66" depart="201.00" departLane="279952229#0_0" departPos="5.10" departSpeed="0.00" departDelay="2.00" arrival="302.00" arrivalLane="-115602933#2_0" arrivalPos="75.56" arrivalSpeed="7.45" duration="101.00" routeLength="669.33" waitingTime="0.00" waitingCount="0" stopTime="0.00" timeLoss="11.47" rerouteNo="0" devices="tripinfo_66" vType="DEFAULT_VEHTYPE" speedFactor="0.91" vaporized=""/>
    <tripinfo id="69" depart="210.00" departLane="279952229#0_0" departPos="5.10" departSpeed="0.00" departDelay="5.00" arrival="304.00" arrivalLane="-115602933#2_0" arrivalPos="75.56" arrivalSpeed="7.76" duration="94.00" routeLength="669.33" waitingTime="0.00" waitingCount="0" stopTime="0.00" timeLoss="15.00" rerouteNo="0" devices="tripinfo_69" vType="DEFAULT_VEHTYPE" speedFactor="1.02" vaporized=""/>
    <tripinfo id="70" depart="213.00" departLane="279952229#0_0" departPos="5.10" departSpeed="0.00" departDelay="2.00" arrival="306.00" arrivalLane="-115602933#2_0" arrivalPos="75.56" arrivalSpeed="8.12" duration="93.00" routeLength="669.33" waitingTime="0.00" waitingCount="0" stopTime="0.00" timeLoss="14.06" rerouteNo="0" devices="tripinfo_70" vType="DEFAULT_VEHTYPE" speedFactor="1.02" vaporized=""/>
    <tripinfo id="71" depart="216.00" departLane="279952229#0_0" departPos="5.10" departSpeed="0.00" departDelay="5.00" arrival="311.00" arrivalLane="-115602933#2_0" arrivalPos="75.56" arrivalSpeed="7.01" duration="95.00" routeLength="669.33" waitingTime="0.00" waitingCount="0" stopTime="0.00" timeLoss="10.94" rerouteNo="0" devices="tripinfo_71" vType="DEFAULT_VEHTYPE" speedFactor="0.97" vaporized=""/>
    <tripinfo id="37" depart="114.00" departLane="279952229#0_0" departPos="5.10" departSpeed="0.00" departDelay="5.00" arrival="313.00" arrivalLane="-115602933#2_0" arrivalPos="75.56" arrivalSpeed="9.82" duration="199.00" routeLength="1200.24" waitingTime="27.00" waitingCount="3" stopTime="0.00" timeLoss="75.42" rerouteNo="0" devices="tripinfo_37" vType="DEFAULT_VEHTYPE" speedFactor="1.18" vaporized=""/>
    <tripinfo id="42" depart="129.00" departLane="279952229#0_0" departPos="5.10" departSpeed="0.00" departDelay="2.00" arrival="314.00" arrivalLane="-115602933#2_0" arrivalPos="75.56" arrivalSpeed="8.69" duration="185.00" routeLength="1200.24" waitingTime="22.00" waitingCount="3" stopTime="0.00" timeLoss="52.51" rerouteNo="0" devices="tripinfo_42" vType="DEFAULT_VEHTYPE" speedFactor="1.09" vaporized=""/>
    <tripinfo id="44" depart="135.00" departLane="279952229#0_0" departPos="5.10" departSpeed="0.00" departDelay="2.00" arrival="318.00" arrivalLane="-115602933#2_0" arrivalPos="75.56" arrivalSpeed="8.09" duration="183.00" routeLength="1200.24" waitingTime="9.00" waitingCount="2" stopTime="0.00" timeLoss="43.62" rerouteNo="0" devices="tripinfo_44" vType="DEFAULT_VEHTYPE" speedFactor="1.04" vaporized=""/>
    <tripinfo id="51" depart="155.00" departLane="279952229#0_0" departPos="5.10" departSpeed="0.00" departDelay="4.00" arrival="320.00" arrivalLane="-115602933#2_0" arrivalPos="75.56" arrivalSpeed="9.13" duration="165.00" routeLength="1200.24" waitingTime="8.00" waitingCount="1" stopTime="0.00" timeLoss="40.30" rerouteNo="0" devices="tripinfo_51" vType="DEFAULT_VEHTYPE" speedFactor="1.17" vaporized=""/>
    <tripinfo id="50" depart="152.00" departLane="279952229#0_0" departPos="5.10" departSpeed="0.00" departDelay="1.00" arrival="327.00" arrivalLane="-115602933#2_0" arrivalPos="75.56" arrivalSpeed="5.94" duration="175.00" routeLength="668.45" waitingTime="58.00" waitingCount="2" stopTime="0.00" timeLoss="80.17" rerouteNo="0" devices="tripinfo_50" vType="DEFAULT_VEHTYPE" speedFactor="0.85" vaporized=""/>
    <tripinfo id="77" depart="234.00" departLane="279952229#0_0" departPos="5.10" departSpeed="0.00" departDelay="5.00" arrival="329.00" arrivalLane="-115602933#2_0" arrivalPos="75.56" arrivalSpeed="7.76" duration="95.00" routeLength="669.33" waitingTime="0.00" waitingCount="0" stopTime="0.00" timeLoss="12.29" rerouteNo="0" devices="tripinfo_77" vType="DEFAULT_VEHTYPE" speedFactor="0.98" vaporized=""/>
    <tripinfo id="79" depart="240.00" departLane="279952229#0_0" departPos="5.10" departSpeed="0.00" departDelay="5.00" arrival="331.00" arrivalLane="-115602933#2_0" arrivalPos="75.56" arrivalSpeed="8.16" duration="91.00" routeLength="669.33" waitingTime="0.00" waitingCount="0" stopTime="0.00" timeLoss="16.16" rerouteNo="0" devices="tripinfo_79" vType="DEFAULT_VEHTYPE" speedFactor="1.09" vaporized=""/>
    <tripinfo id="80" depart="243.00" departLane="279952229#0_0" departPos="5.10" departSpeed="0.00" departDelay="2.00" arrival="333.00" arrivalLane="-115602933#2_0" arrivalPos="75.56" arrivalSpeed="7.68" duration="90.00" routeLength="669.33" waitingTime="0.00" waitingCount="0" stopTime="0.00" timeLoss="11.62" rerouteNo="0" devices="tripinfo_80" vType="DEFAULT_VEHTYPE" speedFactor="1.03" vaporized=""/>
    <tripinfo id="81" depart="246.00" departLane="279952229#0_0" departPos="5.10" departSpeed="0.00" departDelay="5.00" arrival="338.00" arrivalLane="-115602933#2_0" arrivalPos="75.56" arrivalSpeed="7.35" duration="92.00" routeLength="669.33" waitingTime="0.00" waitingCount="0" stopTime="0.00" timeLoss="10.20" rerouteNo="0" devices="tripinfo_81" vType="DEFAULT_VEHTYPE" speedFactor="1.00" vaporized=""/>
    <tripinfo id="82" depart="249.00" departLane="279952229#0_0" departPos="5.10" departSpeed="0.00" departDelay="2.00" arrival="340.00" arrivalLane="-115602933#2_0" arrivalPos="75.56" arrivalSpeed="7.36" duration="91.00" routeLength="669.33" waitingTime="0.00" waitingCount="0" stopTime="0.00" timeLoss="11.05" rerouteNo="0" devices="tripinfo_82" vType="DEFAULT_VEHTYPE" speedFactor="1.02" vaporized=""/>
    <tripinfo id="52" depart="159.00" departLane="279952229#0_0" departPos="5.10" departSpeed="0.00" departDelay="2.00" arrival="345.00" arrivalLane="-115602933#2_0" arrivalPos="75.56" arrivalSpeed="7.84" duration="186.00" routeLength="1200.24" waitingTime="21.00" waitingCount="2" stopTime="0.00" timeLoss="42.90" rerouteNo="0" devices="tripinfo_52" vType="DEFAULT_VEHTYPE" speedFactor="1.02" vaporized=""/>
    <tripinfo id="53" depart="162.00" departLane="279952229#0_0" departPos="5.10" departSpeed="0.00" departDelay="5.00" arrival="347.00" arrivalLane="-115602933#2_0" arrivalPos="75.56" arrivalSpeed="8.09" duration="185.00" routeLength="1200.24" waitingTime="18.00" waitingCount="2" stopTime="0.00" timeLoss="52.56" rerouteNo="0" devices="tripinfo_53" vType="DEFAULT_VEHTYPE" speedFactor="1.10" vaporized=""/>
    <tripinfo id="85" depart="258.00" departLane="279952229#0_0" departPos="5.10" departSpeed="0.00" departDelay="5.00" arrival="353.00" arrivalLane="-115602933#2_0" arrivalPos="75.56" arrivalSpeed="7.81" duration="95.00" routeLength="669.33" waitingTime="0.00" waitingCount="0" stopTime="0.00" timeLoss="11.29" rerouteNo="0" devices="tripinfo_85" vType="DEFAULT_VEHTYPE" speedFactor="0.98" vaporized=""/>
    <tripinfo id="86" depart="261.00" departLane="279952229#0_0" departPos="5.10" departSpeed="0.00" departDelay="2.00" arrival="355.00" arrivalLane="-115602933#2_0" arrivalPos="75.56" arrivalSpeed="7.21" duration="94.00" routeLength="669.33" waitingTime="0.00" waitingCount="0" stopTime="0.00" timeLoss="12.72" rerouteNo="0" devices="tripinfo_86" vType="DEFAULT_VEHTYPE" speedFactor="1.00" vaporized=""/>
    <tripinfo id="54" depart="165.00" departLane="279952229#0_0" departPos="5.10" departSpeed="0.00" departDelay="2.00" arrival="359.00" arrivalLane="-115602933#2_0" arrivalPos="75.56" arrivalSpeed="8.12" duration="194.00" routeLength="668.45" waitingTime="88.00" waitingCount="3" stopTime="0.00" timeLoss="112.99" rerouteNo="0" devices="tripinfo_54" vType="DEFAULT_VEHTYPE" speedFactor="1.00" vaporized=""/>
    <tripinfo id="90" depart="273.00" departLane="279952229#0_0" departPos="5.10" departSpeed="0.00" departDelay="2.00" arrival="363.00" arrivalLane="-115602933#2_0" arrivalPos="75.56" arrivalSpeed="7.19" duration="90.00" routeLength="669.33" waitingTime="0.00" waitingCount="0" stopTime="0.00" timeLoss="9.90" rerouteNo="0" devices="tripinfo_90" vType="DEFAULT_VEHTYPE" speedFactor="1.02" vaporized=""/>
    <tripinfo id="55" depart="168.00" departLane="279952229#0_0" departPos="5.10" departSpeed="0.00" departDelay="5.00" arrival="368.00" arrivalLane="-115602933#2_0" arrivalPos="75.56" arrivalSpeed="7.59" duration="200.00" routeLength="1200.24" waitingTime="31.00" waitingCount="2" stopTime="0.00" timeLoss="54.07" rerouteNo="0" devices="tripinfo_55" vType="DEFAULT_VEHTYPE" speedFactor="1.00" vaporized=""/>