<?xml version="1.0" encoding="UTF-8"?>

<!-- generated on 2024-01-24 13:14:40 by Eclipse SUMO sumo Version 1.19.0
<configuration xmlns:xsi="http://www.w3.org/2001/XMLSchema-instance" xsi:noNamespaceSchemaLocation="http://sumo.dlr.de/xsd/sumoConfiguration.xsd">

    <input>
        <net-file value="Network_and_config/csomor1.net.xml"/>
        <route-files value="Network_and_config/test.rou.xml"/>
    </input>

    <output>
        <summary-output value="Network_and_config/summary.xml"/>
        <tripinfo-output value="Network_and_config/tripinfo.xml"/>
    </output>

    <traci_server>
        <remote-port value="54522"/>
    </traci_server>

</configuration>
-->

<tripinfos xmlns:xsi="http://www.w3.org/2001/XMLSchema-instance" xsi:noNamespaceSchemaLocation="http://sumo.dlr.de/xsd/tripinfo_file.xsd">
    <tripinfo id="0" depart="1.00" departLane="279952229#0_0" departPos="5.10" departSpeed="0.00" departDelay="0.00" arrival="88.00" arrivalLane="-115602933#2_0" arrivalPos="75.56" arrivalSpeed="8.35" duration="87.00" routeLength="668.45" waitingTime="0.00" waitingCount="0" stopTime="0.00" timeLoss="10.44" rerouteNo="0" devices="tripinfo_0" vType="DEFAULT_VEHTYPE" speedFactor="1.06" vaporized=""/>
    <tripinfo id="2" depart="7.00" departLane="279952229#0_0" departPos="5.10" departSpeed="0.00" departDelay="0.00" arrival="97.00" arrivalLane="-115602933#2_0" arrivalPos="75.56" arrivalSpeed="8.10" duration="90.00" routeLength="669.33" waitingTime="0.00" waitingCount="0" stopTime="0.00" timeLoss="10.06" rerouteNo="0" devices="tripinfo_2" vType="DEFAULT_VEHTYPE" speedFactor="1.01" vaporized=""/>
    <tripinfo id="3" depart="10.00" departLane="279952229#0_0" departPos="5.10" departSpeed="0.00" departDelay="3.00" arrival="99.00" arrivalLane="-115602933#2_0" arrivalPos="75.56" arrivalSpeed="8.93" duration="89.00" routeLength="669.33" waitingTime="0.00" waitingCount="0" stopTime="0.00" timeLoss="14.02" rerouteNo="0" devices="tripinfo_3" vType="DEFAULT_VEHTYPE" speedFactor="1.08" vaporized=""/>
    <tripinfo id="6" depart="19.00" departLane="279952229#0_0" departPos="5.10" departSpeed="0.00" departDelay="0.00" arrival="109.00" arrivalLane="-115602933#2_0" arrivalPos="75.56" arrivalSpeed="7.90" duration="90.00" routeLength="668.45" waitingTime="1.00" waitingCount="1" stopTime="0.00" timeLoss="12.42" rerouteNo="0" devices="tripinfo_6" vType="DEFAULT_VEHTYPE" speedFactor="1.05" vaporized=""/>
    <tripinfo id="8" depart="26.00" departLane="279952229#0_0" departPos="5.10" departSpeed="0.00" departDelay="1.00" arrival="124.00" arrivalLane="-115602933#2_0" arrivalPos="75.56" arrivalSpeed="7.44" duration="98.00" routeLength="669.33" waitingTime="0.00" waitingCount="0" stopTime="0.00" timeLoss="10.92" rerouteNo="0" devices="tripinfo_8" vType="DEFAULT_VEHTYPE" speedFactor="0.94" vaporized=""/>
    <tripinfo id="10" depart="32.00" departLane="279952229#0_0" departPos="5.10" departSpeed="0.00" departDelay="1.00" arrival="126.00" arrivalLane="-115602933#2_0" arrivalPos="75.56" arrivalSpeed="8.47" duration="94.00" routeLength="668.45" waitingTime="4.00" waitingCount="1" stopTime="0.00" timeLoss="19.07" rerouteNo="0" devices="tripinfo_10" vType="DEFAULT_VEHTYPE" speedFactor="1.09" vaporized=""/>
    <tripinfo id="9" depart="29.00" departLane="279952229#0_0" departPos="5.10" departSpeed="0.00" departDelay="4.00" arrival="135.00" arrivalLane="-115602933#2_0" arrivalPos="75.56" arrivalSpeed="6.71" duration="106.00" routeLength="669.33" waitingTime="0.00" waitingCount="0" stopTime="0.00" timeLoss="11.28" rerouteNo="0" devices="tripinfo_9" vType="DEFAULT_VEHTYPE" speedFactor="0.86" vaporized=""/>
    <tripinfo id="14" depart="44.00" departLane="279952229#0_0" departPos="5.10" departSpeed="0.00" departDelay="1.00" arrival="137.00" arrivalLane="-115602933#2_0" arrivalPos="75.56" arrivalSpeed="7.57" duration="93.00" routeLength="669.33" waitingTime="0.00" waitingCount="0" stopTime="0.00" timeLoss="11.31" rerouteNo="0" devices="tripinfo_14" vType="DEFAULT_VEHTYPE" speedFactor="0.99" vaporized=""/>
    <tripinfo id="15" depart="47.00" departLane="279952229#0_0" departPos="5.10" departSpeed="0.00" departDelay="4.00" arrival="147.00" arrivalLane="-115602933#2_0" arrivalPos="75.56" arrivalSpeed="6.45" duration="100.00" routeLength="669.33" waitingTime="0.00" waitingCount="0" stopTime="0.00" timeLoss="12.23" rerouteNo="0" devices="tripinfo_15" vType="DEFAULT_VEHTYPE" speedFactor="0.93" vaporized=""/>
    <tripinfo id="16" depart="50.00" departLane="279952229#0_0" departPos="5.10" departSpeed="0.00" departDelay="1.00" arrival="154.00" arrivalLane="-115602933#2_0" arrivalPos="75.56" arrivalSpeed="6.55" duration="104.00" routeLength="669.33" waitingTime="0.00" waitingCount="0" stopTime="0.00" timeLoss="11.30" rerouteNo="0" devices="tripinfo_16" vType="DEFAULT_VEHTYPE" speedFactor="0.88" vaporized=""/>
    <tripinfo id="18" depart="56.00" departLane="279952229#0_0" departPos="5.10" departSpeed="0.00" departDelay="1.00" arrival="156.00" arrivalLane="-115602933#2_0" arrivalPos="75.56" arrivalSpeed="6.69" duration="100.00" routeLength="669.33" waitingTime="0.00" waitingCount="0" stopTime="0.00" timeLoss="13.06" rerouteNo="0" devices="tripinfo_18" vType="DEFAULT_VEHTYPE" speedFactor="0.94" vaporized=""/>
    <tripinfo id="19" depart="59.00" departLane="279952229#0_0" departPos="5.10" departSpeed="0.00" departDelay="4.00" arrival="158.00" arrivalLane="-115602933#2_0" arrivalPos="75.56" arrivalSpeed="8.52" duration="99.00" routeLength="669.33" waitingTime="0.00" waitingCount="0" stopTime="0.00" timeLoss="28.71" rerouteNo="0" devices="tripinfo_19" vType="DEFAULT_VEHTYPE" speedFactor="1.16" vaporized=""/>
    <tripinfo id="20" depart="62.00" departLane="279952229#0_0" departPos="5.10" departSpeed="0.00" departDelay="1.00" arrival="160.00" arrivalLane="-115602933#2_0" arrivalPos="75.56" arrivalSpeed="7.32" duration="98.00" routeLength="669.33" waitingTime="0.00" waitingCount="0" stopTime="0.00" timeLoss="18.54" rerouteNo="0" devices="tripinfo_20" vType="DEFAULT_VEHTYPE" speedFactor="1.02" vaporized=""/>
    <tripinfo id="21" depart="65.00" departLane="279952229#0_0" departPos="5.10" departSpeed="0.00" departDelay="4.00" arrival="163.00" arrivalLane="-115602933#2_0" arrivalPos="75.56" arrivalSpeed="7.99" duration="98.00" routeLength="669.33" waitingTime="0.00" waitingCount="0" stopTime="0.00" timeLoss="17.25" rerouteNo="0" devices="tripinfo_21" vType="DEFAULT_VEHTYPE" speedFactor="1.01" vaporized=""/>
    <tripinfo id="11" depart="35.00" departLane="279952229#0_0" departPos="5.10" departSpeed="0.00" departDelay="4.00" arrival="165.00" arrivalLane="-115602933#2_0" arrivalPos="75.56" arrivalSpeed="8.18" duration="130.00" routeLength="668.45" waitingTime="33.00" waitingCount="2" stopTime="0.00" timeLoss="50.63" rerouteNo="0" devices="tripinfo_11" vType="DEFAULT_VEHTYPE" speedFactor="1.03" vaporized=""/>
    <tripinfo id="12" depart="38.00" departLane="279952229#0_0" departPos="5.10" departSpeed="0.00" departDelay="1.00" arrival="167.00" arrivalLane="-115602933#2_0" arrivalPos="75.56" arrivalSpeed="8.39" duration="129.00" routeLength="668.45" waitingTime="31.00" waitingCount="1" stopTime="0.00" timeLoss="51.13" rerouteNo="0" devices="tripinfo_12" vType="DEFAULT_VEHTYPE" speedFactor="1.05" vaporized=""/>
    <tripinfo id="23" depart="71.00" departLane="279952229#0_0" departPos="5.10" departSpeed="0.00" departDelay="4.00" arrival="174.00" arrivalLane="-115602933#2_0" arrivalPos="75.56" arrivalSpeed="7.28" duration="103.00" routeLength="669.33" waitingTime="0.00" waitingCount="0" stopTime="0.00" timeLoss="11.82" rerouteNo="0" devices="tripinfo_23" vType="DEFAULT_VEHTYPE" speedFactor="0.89" vaporized=""/>
    <tripinfo id="27" depart="83.00" departLane="279952229#0_0" departPos="5.10" departSpeed="0.00" departDelay="4.00" arrival="179.00" arrivalLane="-115602933#2_0" arrivalPos="75.56" arrivalSpeed="7.26" duration="96.00" routeLength="669.33" waitingTime="0.00" waitingCount="0" stopTime="0.00" timeLoss="10.73" rerouteNo="0" devices="tripinfo_27" vType="DEFAULT_VEHTYPE" speedFactor="0.95" vaporized=""/>
    <tripinfo id="28" depart="86.00" departLane="279952229#0_0" departPos="5.10" departSpeed="0.00" departDelay="1.00" arrival="181.00" arrivalLane="-115602933#2_0" arrivalPos="75.56" arrivalSpeed="8.47" duration="95.00" routeLength="669.33" waitingTime="0.00" waitingCount="0" stopTime="0.00" timeLoss="23.07" rerouteNo="0" devices="tripinfo_28" vType="DEFAULT_VEHTYPE" speedFactor="1.13" vaporized=""/>
    <tripinfo id="29" depart="89.00" departLane="279952229#0_0" departPos="5.10" departSpeed="0.00" departDelay="4.00" arrival="186.00" arrivalLane="-115602933#2_0" arrivalPos="75.56" arrivalSpeed="6.78" duration="97.00" routeLength="669.33" waitingTime="0.00" waitingCount="0" stopTime="0.00" timeLoss="9.44" rerouteNo="0" devices="tripinfo_29" vType="DEFAULT_VEHTYPE" speedFactor="0.93" vaporized=""/>
    <tripinfo id="30" depart="92.00" departLane="279952229#0_0" departPos="5.10" departSpeed="0.00" departDelay="1.00" arrival="188.00" arrivalLane="-115602933#2_0" arrivalPos="75.56" arrivalSpeed="9.29" duration="96.00" routeLength="669.33" waitingTime="0.00" waitingCount="0" stopTime="0.00" timeLoss="26.67" rerouteNo="0" devices="tripinfo_30" vType="DEFAULT_VEHTYPE" speedFactor="1.18" vaporized=""/>
    <tripinfo id="32" depart="98.00" departLane="279952229#0_0" departPos="5.10" departSpeed="0.00" departDelay="1.00" arrival="190.00" arrivalLane="-115602933#2_0" arrivalPos="75.56" arrivalSpeed="8.36" duration="92.00" routeLength="669.33" waitingTime="0.00" waitingCount="0" stopTime="0.00" timeLoss="11.09" rerouteNo="0" devices="tripinfo_32" vType="DEFAULT_VEHTYPE" speedFactor="1.01" vaporized=""/>
    <tripinfo id="33" depart="101.00" departLane="279952229#0_0" departPos="5.10" departSpeed="0.00" departDelay="4.00" arrival="192.00" arrivalLane="-115602933#2_0" arrivalPos="75.56" arrivalSpeed="8.49" duration="91.00" routeLength="669.33" waitingTime="0.00" waitingCount="0" stopTime="0.00" timeLoss="21.61" rerouteNo="0" devices="tripinfo_33" vType="DEFAULT_VEHTYPE" speedFactor="1.17" vaporized=""/>
    <tripinfo id="34" depart="104.00" departLane="279952229#0_0" departPos="5.10" departSpeed="0.00" departDelay="1.00" arrival="196.00" arrivalLane="-115602933#2_0" arrivalPos="75.56" arrivalSpeed="7.28" duration="92.00" routeLength="669.33" waitingTime="0.00" waitingCount="0" stopTime="0.00" timeLoss="10.25" rerouteNo="0" devices="tripinfo_34" vType="DEFAULT_VEHTYPE" speedFactor="0.99" vaporized=""/>
    <tripinfo id="1" depart="4.00" departLane="279952229#0_0" departPos="5.10" departSpeed="0.00" departDelay="3.00" arrival="202.00" arrivalLane="-115602933#2_0" arrivalPos="75.56" arrivalSpeed="7.27" duration="198.00" routeLength="1200.24" waitingTime="20.00" waitingCount="2" stopTime="0.00" timeLoss="43.42" rerouteNo="0" devices="tripinfo_1" vType="DEFAULT_VEHTYPE" speedFactor="0.94" vaporized=""/>
    <tripinfo id="4" depart="13.00" departLane="279952229#0_0" departPos="5.10" departSpeed="0.00" departDelay="0.00" arrival="204.00" arrivalLane="-115602933#2_0" arrivalPos="75.56" arrivalSpeed="8.56" duration="191.00" routeLength="1200.24" waitingTime="19.00" waitingCount="2" stopTime="0.00" timeLoss="49.87" rerouteNo="0" devices="tripinfo_4" vType="DEFAULT_VEHTYPE" speedFactor="1.03" vaporized=""/>
    <tripinfo id="17" depart="53.00" departLane="279952229#0_0" departPos="5.10" departSpeed="0.00" departDelay="4.00" arrival="207.00" arrivalLane="-115602933#2_0" arrivalPos="75.56" arrivalSpeed="7.13" duration="154.00" routeLength="668.45" waitingTime="50.00" waitingCount="2" stopTime="0.00" timeLoss="67.61" rerouteNo="0" devices="tripinfo_17" vType="DEFAULT_VEHTYPE" speedFactor="0.94" vaporized=""/>
    <tripinfo id="22" depart="68.00" departLane="279952229#0_0" departPos="5.10" departSpeed="0.00" departDelay="1.00" arrival="209.00" arrivalLane="-115602933#2_0" arrivalPos="75.56" arrivalSpeed="8.06" duration="141.00" routeLength="668.45" waitingTime="39.00" waitingCount="2" stopTime="0.00" timeLoss="58.12" rerouteNo="0" devices="tripinfo_22" vType="DEFAULT_VEHTYPE" speedFactor="0.97" vaporized=""/>
    <tripinfo id="25" depart="77.00" departLane="279952229#0_0" departPos="5.10" departSpeed="0.00" departDelay="4.00" arrival="214.00" arrivalLane="-115602933#2_0" arrivalPos="75.56" arrivalSpeed="6.01" duration="137.00" routeLength="668.45" waitingTime="29.00" waitingCount="1" stopTime="0.00" timeLoss="43.97" rerouteNo="0" devices="tripinfo_25" vType="DEFAULT_VEHTYPE" speedFactor="0.87" vaporized=""/>
    <tripinfo id="42" depart="128.00" departLane="279952229#0_0" departPos="5.10" departSpeed="0.00" departDelay="1.00" arrival="216.00" arrivalLane="-115602933#2_0" arrivalPos="75.56" arrivalSpeed="7.82" duration="88.00" routeLength="669.33" waitingTime="0.00" waitingCount="0" stopTime="0.00" timeLoss="13.60" rerouteNo="0" devices="tripinfo_42" vType="DEFAULT_VEHTYPE" speedFactor="1.09" vaporized=""/>
    <tripinfo id="44" depart="134.00" departLane="279952229#0_0" departPos="5.10" departSpeed="0.00" departDelay="1.00" arrival="222.00" arrivalLane="-115602933#2_0" arrivalPos="75.56" arrivalSpeed="8.12" duration="88.00" routeLength="669.33" waitingTime="0.00" waitingCount="0" stopTime="0.00" timeLoss="10.09" rerouteNo="0" devices="tripinfo_44" vType="DEFAULT_VEHTYPE" speedFactor="1.04" vaporized=""/>
    <tripinfo id="46" depart="140.00" departLane="279952229#0_0" departPos="5.10" departSpeed="0.00" departDelay="1.00" arrival="231.00" arrivalLane="-115602933#2_0" arrivalPos="75.56" arrivalSpeed="8.21" duration="91.00" routeLength="669.33" waitingTime="0.00" waitingCount="0" stopTime="0.00" timeLoss="9.31" rerouteNo="0" devices="tripinfo_46" vType="DEFAULT_VEHTYPE" speedFactor="1.00" vaporized=""/>
    <tripinfo id="26" depart="80.00" departLane="279952229#0_0" departPos="5.10" departSpeed="0.00" departDelay="1.00" arrival="237.00" arrivalLane="-115602933#2_0" arrivalPos="75.56" arrivalSpeed="7.59" duration="157.00" routeLength="668.45" waitingTime="46.00" waitingCount="2" stopTime="0.00" timeLoss="68.14" rerouteNo="0" devices="tripinfo_26" vType="DEFAULT_VEHTYPE" speedFactor="0.92" vaporized=""/>
    <tripinfo id="31" depart="95.00" departLane="279952229#0_0" departPos="5.10" departSpeed="0.00" departDelay="4.00" arrival="239.00" arrivalLane="-115602933#2_0" arrivalPos="75.56" arrivalSpeed="8.62" duration="144.00" routeLength="668.45" waitingTime="43.00" waitingCount="2" stopTime="0.00" timeLoss="73.17" rerouteNo="0" devices="tripinfo_31" vType="DEFAULT_VEHTYPE" speedFactor="1.15" vaporized=""/>
    <tripinfo id="47" depart="143.00" departLane="279952229#0_0" departPos="5.10" departSpeed="0.00" departDelay="4.00" arrival="244.00" arrivalLane="-115602933#2_0" arrivalPos="75.56" arrivalSpeed="6.57" duration="101.00" routeLength="669.33" waitingTime="0.00" waitingCount="0" stopTime="0.00" timeLoss="10.97" rerouteNo="0" devices="tripinfo_47" vType="DEFAULT_VEHTYPE" speedFactor="0.90" vaporized=""/>
    <tripinfo id="5" depart="16.00" departLane="279952229#0_0" departPos="5.10" departSpeed="0.00" departDelay="3.00" arrival="252.00" arrivalLane="-115602933#2_0" arrivalPos="75.56" arrivalSpeed="6.11" duration="236.00" routeLength="1200.24" waitingTime="34.00" waitingCount="2" stopTime="0.00" timeLoss="61.52" rerouteNo="0" devices="tripinfo_5" vType="DEFAULT_VEHTYPE" speedFactor="0.83" vaporized=""/>
    <tripinfo id="7" depart="23.00" departLane="279952229#0_0" departPos="5.10" departSpeed="0.00" departDelay="4.00" arrival="254.00" arrivalLane="-115602933#2_0" arrivalPos="75.56" arrivalSpeed="7.01" duration="231.00" routeLength="1200.24" waitingTime="33.00" waitingCount="2" stopTime="0.00" timeLoss="67.40" rerouteNo="0" devices="tripinfo_7" vType="DEFAULT_VEHTYPE" speedFactor="0.89" vaporized=""/>
    <tripinfo id="49" depart="149.00" departLane="279952229#0_0" departPos="5.10" departSpeed="0.00" departDelay="4.00" arrival="257.00" arrivalLane="-115602933#2_0" arrivalPos="75.56" arrivalSpeed="6.51" duration="108.00" routeLength="669.33" waitingTime="0.00" waitingCount="0" stopTime="0.00" timeLoss="12.56" rerouteNo="0" devices="tripinfo_49" vType="DEFAULT_VEHTYPE" speedFactor="0.85" vaporized=""/>
    <tripinfo id="13" depart="41.00" departLane="279952229#0_0" departPos="5.10" departSpeed="0.00" departDelay="4.00" arrival="259.00" arrivalLane="-115602933#2_0" arrivalPos="75.56" arrivalSpeed="9.24" duration="218.00" routeLength="1200.24" waitingTime="36.00" waitingCount="3" stopTime="0.00" timeLoss="88.66" rerouteNo="0" devices="tripinfo_13" vType="DEFAULT_VEHTYPE" speedFactor="1.12" vaporized=""/>
    <tripinfo id="35" depart="107.00" departLane="279952229#0_0" departPos="5.10" departSpeed="0.00" departDelay="4.00" arrival="261.00" arrivalLane="-115602933#2_0" arrivalPos="75.56" arrivalSpeed="8.42" duration="154.00" routeLength="668.45" waitingTime="47.00" waitingCount="3" stopTime="0.00" timeLoss="74.63" rerouteNo="0" devices="tripinfo_35" vType="DEFAULT_VEHTYPE" speedFactor="1.02" vaporized=""/>
    <tripinfo id="36" depart="110.00" departLane="279952229#0_0" departPos="5.10" departSpeed="0.00" departDelay="1.00" arrival="264.00" arrivalLane="-115602933#2_0" arrivalPos="75.56" arrivalSpeed="7.85" duration="154.00" routeLength="668.45" waitingTime="45.00" waitingCount="3" stopTime="0.00" timeLoss="70.36" rerouteNo="0" devices="tripinfo_36" vType="DEFAULT_VEHTYPE" speedFactor="0.97" vaporized=""/>
    <tripinfo id="37" depart="113.00" departLane="279952229#0_0" departPos="5.10" departSpeed="0.00" departDelay="4.00" arrival="266.00" arrivalLane="-115602933#2_0" arrivalPos="75.56" arrivalSpeed="9.80" duration="153.00" routeLength="668.45" waitingTime="40.00" waitingCount="3" stopTime="0.00" timeLoss="83.55" rerouteNo="0" devices="tripinfo_37" vType="DEFAULT_VEHTYPE" speedFactor="1.18" vaporized=""/>
    <tripinfo id="56" depart="170.00" departLane="279952229#0_0" departPos="5.10" departSpeed="0.00" departDelay="1.00" arrival="272.00" arrivalLane="-115602933#2_0" arrivalPos="75.56" arrivalSpeed="6.77" duration="102.00" routeLength="669.33" waitingTime="0.00" waitingCount="0" stopTime="0.00" timeLoss="11.90" rerouteNo="0" devices="tripinfo_56" vType="DEFAULT_VEHTYPE" speedFactor="0.90" vaporized=""/>
    <tripinfo id="61" depart="185.00" departLane="279952229#0_0" departPos="5.10" departSpeed="0.00" departDelay="4.00" arrival="274.00" arrivalLane="-115602933#2_0" arrivalPos="75.56" arrivalSpeed="8.58" duration="89.00" routeLength="669.33" waitingTime="0.00" waitingCount="0" stopTime="0.00" timeLoss="16.54" rerouteNo="0" devices="tripinfo_61" vType="DEFAULT_VEHTYPE" speedFactor="1.12" vaporized=""/>
    <tripinfo id="38" depart="116.00" departLane="279952229#0_0" departPos="5.10" departSpeed="0.00" departDelay="1.00" arrival="276.00" arrivalLane="-115602933#2_0" arrivalPos="75.56" arrivalSpeed="8.66" duration="160.00" routeLength="668.45" waitingTime="46.00" waitingCount="4" stopTime="0.00" timeLoss="86.55" rerouteNo="0" devices="tripinfo_38" vType="DEFAULT_VEHTYPE" speedFactor="1.10" vaporized=""/>
    <tripinfo id="39" depart="119.00" departLane="279952229#0_0" departPos="5.10" departSpeed="0.00" departDelay="4.00" arrival="280.00" arrivalLane="-115602933#2_0" arrivalPos="75.56" arrivalSpeed="7.27" duration="161.00" routeLength="668.45" waitingTime="36.00" waitingCount="4" stopTime="0.00" timeLoss="71.00" rerouteNo="0" devices="tripinfo_39" vType="DEFAULT_VEHTYPE" speedFactor="0.90" vaporized=""/>
    <tripinfo id="50" depart="151.00" departLane="279952229#0_0" departPos="5.10" departSpeed="0.00" departDelay="0.00" arrival="284.00" arrivalLane="-115602933#2_0" arrivalPos="75.56" arrivalSpeed="6.70" duration="133.00" routeLength="668.45" waitingTime="15.00" waitingCount="2" stopTime="0.00" timeLoss="38.37" rerouteNo="0" devices="tripinfo_50" vType="DEFAULT_VEHTYPE" speedFactor="0.85" vaporized=""/>
    <tripinfo id="54" depart="164.00" departLane="279952229#0_0" departPos="5.10" departSpeed="0.00" departDelay="1.00" arrival="287.00" arrivalLane="-115602933#2_0" arrivalPos="75.56" arrivalSpeed="7.18" duration="123.00" routeLength="668.45" waitingTime="14.00" waitingCount="2" stopTime="0.00" timeLoss="41.60" rerouteNo="0" devices="tripinfo_54" vType="DEFAULT_VEHTYPE" speedFactor="1.00" vaporized=""/>
    <tripinfo id="57" depart="173.00" departLane="279952229#0_0" departPos="5.10" departSpeed="0.00" departDelay="4.00" arrival="289.00" arrivalLane="-115602933#2_0" arrivalPos="75.56" arrivalSpeed="9.39" duration="116.00" routeLength="668.45" waitingTime="13.00" waitingCount="2" stopTime="0.00" timeLoss="44.44" rerouteNo="0" devices="tripinfo_57" vType="DEFAULT_VEHTYPE" speedFactor="1.14" vaporized=""/>
    <tripinfo id="64" depart="194.00" departLane="279952229#0_0" departPos="5.10" departSpeed="0.00" departDelay="1.00" arrival="292.00" arrivalLane="-115602933#2_0" arrivalPos="75.56" arrivalSpeed="7.09" duration="98.00" routeLength="669.33" waitingTime="0.00" waitingCount="0" stopTime="0.00" timeLoss="11.34" rerouteNo="0" devices="tripinfo_64" vType="DEFAULT_VEHTYPE" speedFactor="0.94" vaporized=""/>
    <tripinfo id="65" depart="197.00" departLane="279952229#0_0" departPos="5.10" departSpeed="0.00" departDelay="4.00" arrival="301.00" arrivalLane="-115602933#2_0" arrivalPos="75.56" arrivalSpeed="6.44" duration="104.00" routeLength="669.33" waitingTime="0.00" waitingCount="0" stopTime="0.00" timeLoss="11.42" rerouteNo="0" devices="tripinfo_65" vType="DEFAULT_VEHTYPE" speedFactor="0.88" vaporized=""/>
    <tripinfo id="66" depart="200.00" departLane="279952229#0_0" departPos="5.10" departSpeed="0.00" departDelay="1.00" arrival="303.00" arrivalLane="-115602933#2_0" arrivalPos="75.56" arrivalSpeed="6.66" duration="103.00" routeLength="669.33" waitingTime="0.00" waitingCount="0" stopTime="0.00" timeLoss="13.56" rerouteNo="0" devices="tripinfo_66" vType="DEFAULT_VEHTYPE" speedFactor="0.91" vaporized=""/>
    <tripinfo id="70" depart="212.00" departLane="279952229#0_0" departPos="5.10" departSpeed="0.00" departDelay="1.00" arrival="305.00" arrivalLane="-115602933#2_0" arrivalPos="75.56" arrivalSpeed="8.12" duration="93.00" routeLength="669.33" waitingTime="0.00" waitingCount="0" stopTime="0.00" timeLoss="13.85" rerouteNo="0" devices="tripinfo_70" vType="DEFAULT_VEHTYPE" speedFactor="1.02" vaporized=""/>
    <tripinfo id="71" depart="215.00" departLane="279952229#0_0" departPos="5.10" departSpeed="0.00" departDelay="4.00" arrival="309.00" arrivalLane="-115602933#2_0" arrivalPos="75.56" arrivalSpeed="7.59" duration="94.00" routeLength="669.33" waitingTime="0.00" waitingCount="0" stopTime="0.00" timeLoss="10.37" rerouteNo="0" devices="tripinfo_71" vType="DEFAULT_VEHTYPE" speedFactor="0.97" vaporized=""/>
    <tripinfo id="72" depart="218.00" departLane="279952229#0_0" departPos="5.10" departSpeed="0.00" departDelay="1.00" arrival="316.00" arrivalLane="-115602933#2_0" arrivalPos="75.56" arrivalSpeed="6.61" duration="98.00" routeLength="669.33" waitingTime="0.00" waitingCount="0" stopTime="0.00" timeLoss="11.17" rerouteNo="0" devices="tripinfo_72" vType="DEFAULT_VEHTYPE" speedFactor="0.94" vaporized=""/>
    <tripinfo id="75" depart="227.00" departLane="279952229#0_0" departPos="5.10" departSpeed="0.00" departDelay="4.00" arrival="320.00" arrivalLane="-115602933#2_0" arrivalPos="75.56" arrivalSpeed="8.20" duration="93.00" routeLength="669.33" waitingTime="0.00" waitingCount="0" stopTime="0.00" timeLoss="10.58" rerouteNo="0" devices="tripinfo_75" vType="DEFAULT_VEHTYPE" speedFactor="0.98" vaporized=""/>
    <tripinfo id="24" depart="74.00" departLane="279952229#0_0" departPos="5.10" departSpeed="0.00" departDelay="1.00" arrival="330.00" arrivalLane="-115602933#2_0" arrivalPos="75.56" arrivalSpeed="6.66" duration="256.00" routeLength="1200.24" waitingTime="57.00" waitingCount="2" stopTime="0.00" timeLoss="79.91" rerouteNo="0" devices="tripinfo_24" vType="DEFAULT_VEHTYPE" speedFactor="0.83" vaporized=""/>
    <tripinfo id="40" depart="122.00" departLane="279952229#0_0" departPos="5.10" departSpeed="0.00" departDelay="1.00" arrival="332.00" arrivalLane="-115602933#2_0" arrivalPos="75.56" arrivalSpeed="7.90" duration="210.00" routeLength="1200.24" waitingTime="29.00" waitingCount="2" stopTime="0.00" timeLoss="68.91" rerouteNo="0" devices="tripinfo_40" vType="DEFAULT_VEHTYPE" speedFactor="1.03" vaporized=""/>
    <tripinfo id="41" depart="125.00" departLane="279952229#0_0" departPos="5.10" departSpeed="0.00" departDelay="4.00" arrival="334.00" arrivalLane="-115602933#2_0" arrivalPos="75.56" arrivalSpeed="7.55" duration="209.00" routeLength="1200.24" waitingTime="26.00" waitingCount="1" stopTime="0.00" timeLoss="57.46" rerouteNo="0" devices="tripinfo_41" vType="DEFAULT_VEHTYPE" speedFactor="0.96" vaporized=""/>
    <tripinfo id="80" depart="242.00" departLane="279952229#0_0" departPos="5.10" departSpeed="0.00" departDelay="1.00" arrival="336.00" arrivalLane="-115602933#2_0" arrivalPos="75.56" arrivalSpeed="8.46" duration="94.00" routeLength="669.33" waitingTime="0.00" waitingCount="0" stopTime="0.00" timeLoss="15.67" rerouteNo="0" devices="tripinfo_80" vType="DEFAULT_VEHTYPE" speedFactor="1.03" vaporized=""/>
    <tripinfo id="58" depart="176.00" departLane="279952229#0_0" departPos="5.10" departSpeed="0.00" departDelay="1.00" arrival="339.00" arrivalLane="-115602933#2_0" arrivalPos="75.56" arrivalSpeed="8.31" duration="163.00" routeLength="668.45" waitingTime="51.00" waitingCount="3" stopTime="0.00" timeLoss="83.05" rerouteNo="0" devices="tripinfo_58" vType="DEFAULT_VEHTYPE" speedFactor="1.02" vaporized=""/>
    <tripinfo id="81" depart="245.00" departLane="279952229#0_0" departPos="5.10" departSpeed="0.00" departDelay="4.00" arrival="341.00" arrivalLane="-115602933#2_0" arrivalPos="75.56" arrivalSpeed="7.53" duration="96.00" routeLength="669.33" waitingTime="0.00" waitingCount="0" stopTime="0.00" timeLoss="14.24" rerouteNo="0" devices="tripinfo_81" vType="DEFAULT_VEHTYPE" speedFactor="1.00" vaporized=""/>
    <tripinfo id="82" depart="249.00" departLane="279952229#0_0" departPos="5.10" departSpeed="0.00" departDelay="2.00" arrival="343.00" arrivalLane="-115602933#2_0" arrivalPos="75.56" arrivalSpeed="8.03" duration="94.00" routeLength="669.33" waitingTime="0.00" waitingCount="0" stopTime="0.00" timeLoss="14.08" rerouteNo="0" devices="tripinfo_82" vType="DEFAULT_VEHTYPE" speedFactor="1.02" vaporized=""/>
    <tripinfo id="43" depart="131.00" departLane="279952229#0_0" departPos="5.10" departSpeed="0.00" departDelay="4.00" arrival="345.00" arrivalLane="-115602933#2_0" arrivalPos="75.56" arrivalSpeed="7.66" duration="214.00" routeLength="1200.24" waitingTime="43.00" waitingCount="3" stopTime="0.00" timeLoss="74.08" rerouteNo="0" devices="tripinfo_43" vType="DEFAULT_VEHTYPE" speedFactor="1.04" vaporized=""/>
    <tripinfo id="85" depart="258.00" departLane="279952229#0_0" departPos="5.10" departSpeed="0.00" departDelay="5.00" arrival="352.00" arrivalLane="-115602933#2_0" arrivalPos="75.56" arrivalSpeed="7.78" duration="94.00" routeLength="669.33" waitingTime="0.00" waitingCount="0" stopTime="0.00" timeLoss="10.54" rerouteNo="0" devices="tripinfo_85" vType="DEFAULT_VEHTYPE" speedFactor="0.98" vaporized=""/>
    <tripinfo id="86" depart="261.00" departLane="279952229#0_0" departPos="5.10" departSpeed="0.00" departDelay="2.00" arrival="354.00" arrivalLane="-115602933#2_0" arrivalPos="75.56" arrivalSpeed="8.31" duration="93.00" routeLength="669.33" waitingTime="0.00" waitingCount="0" stopTime="0.00" timeLoss="11.76" rerouteNo="0" devices="tripinfo_86" vType="DEFAULT_VEHTYPE" speedFactor="1.00" vaporized=""/>
    <tripinfo id="87" depart="264.00" departLane="279952229#0_0" departPos="5.10" departSpeed="0.00" departDelay="5.00" arrival="356.00" arrivalLane="-115602933#2_0" arrivalPos="75.56" arrivalSpeed="8.06" duration="92.00" routeLength="669.33" waitingTime="0.00" waitingCount="0" stopTime="0.00" timeLoss="14.18" rerouteNo="0" devices="tripinfo_87" vType="DEFAULT_VEHTYPE" speedFactor="1.04" vaporized=""/>
    <tripinfo id="88" depart="267.00" departLane="279952229#0_0" departPos="5.10" departSpeed="0.00" departDelay="2.00" arrival="359.00" arrivalLane="-115602933#2_0" arrivalPos="75.56" arrivalSpeed="8.29" duration="92.00" routeLength="669.33" waitingTime="0.00" waitingCount="0" stopTime="0.00" timeLoss="10.86" rerouteNo="0" devices="tripinfo_88" vType="DEFAULT_VEHTYPE" speedFactor="1.01" vaporized=""/>
    <tripinfo id="45" depart="137.00" departLane="279952229#0_0" departPos="5.10" departSpeed="0.00" departDelay="4.00" arrival="361.00" arrivalLane="-115602933#2_0" arrivalPos="75.56" arrivalSpeed="8.94" duration="224.00" routeLength="1200.24" waitingTime="53.00" waitingCount="4" stopTime="0.00" timeLoss="90.30" rerouteNo="0" devices="tripinfo_45" vType="DEFAULT_VEHTYPE" speedFactor="1.09" vaporized=""/>
    <tripinfo id="48" depart="146.00" departLane="279952229#0_0" departPos="5.10" departSpeed="0.00" departDelay="1.00" arrival="369.00" arrivalLane="-115602933#2_0" arrivalPos="75.56" arrivalSpeed="6.88" duration="223.00" routeLength="1200.24" waitingTime="25.00" waitingCount="3" stopTime="0.00" timeLoss="57.34" rerouteNo="0" devices="tripinfo_48" vType="DEFAULT_VEHTYPE" speedFactor="0.88" vaporized=""/>
    <tripinfo id="51" depart="154.00" departLane="279952229#0_0" departPos="5.10" departSpeed="0.00" departDelay="3.00" arrival="371.00" arrivalLane="-115602933#2_0" arrivalPos="75.56" arrivalSpeed="9.55" duration="217.00" routeLength="1200.24" waitingTime="23.00" waitingCount="3" stopTime="0.00" timeLoss="92.62" rerouteNo="0" devices="tripinfo_51" vType="DEFAULT_VEHTYPE" speedFactor="1.17" vaporized=""/>