<?xml version="1.0" encoding="UTF-8"?>

<<<<<<< HEAD
<!-- generated on 2024-01-24 17:20:28 by Eclipse SUMO sumo Version 1.19.0
=======
<!-- generated on 2024-01-24 17:16:34 by Eclipse SUMO sumo Version 1.19.0
>>>>>>> a2bdfd1309208f0a79168c31f10d2f52df10bc5f
<configuration xmlns:xsi="http://www.w3.org/2001/XMLSchema-instance" xsi:noNamespaceSchemaLocation="http://sumo.dlr.de/xsd/sumoConfiguration.xsd">

    <input>
        <net-file value="Network_and_config/csomor1.net.xml"/>
        <route-files value="Network_and_config/test.rou.xml"/>
    </input>

    <output>
        <summary-output value="Network_and_config/summary.xml"/>
        <tripinfo-output value="Network_and_config/tripinfo.xml"/>
    </output>

    <traci_server>
<<<<<<< HEAD
        <remote-port value="56011"/>
    </traci_server>

</configuration>
=======
        <remote-port value="51334"/>
    </traci_server>

</configuration>
-->

<tripinfos xmlns:xsi="http://www.w3.org/2001/XMLSchema-instance" xsi:noNamespaceSchemaLocation="http://sumo.dlr.de/xsd/tripinfo_file.xsd">
    <tripinfo id="0" depart="1.00" departLane="279952229#0_0" departPos="5.10" departSpeed="0.00" departDelay="0.00" arrival="88.00" arrivalLane="-115602933#2_0" arrivalPos="75.56" arrivalSpeed="8.35" duration="87.00" routeLength="668.45" waitingTime="0.00" waitingCount="0" stopTime="0.00" timeLoss="10.34" rerouteNo="0" devices="tripinfo_0" vType="DEFAULT_VEHTYPE" speedFactor="1.06" vaporized=""/>
    <tripinfo id="1" depart="4.00" departLane="279952229#0_0" departPos="5.10" departSpeed="0.00" departDelay="3.00" arrival="101.00" arrivalLane="-115602933#2_0" arrivalPos="75.56" arrivalSpeed="7.50" duration="97.00" routeLength="669.33" waitingTime="0.00" waitingCount="0" stopTime="0.00" timeLoss="10.32" rerouteNo="0" devices="tripinfo_1" vType="DEFAULT_VEHTYPE" speedFactor="0.94" vaporized=""/>
    <tripinfo id="2" depart="7.00" departLane="279952229#0_0" departPos="5.10" departSpeed="0.00" departDelay="0.00" arrival="103.00" arrivalLane="-115602933#2_0" arrivalPos="75.56" arrivalSpeed="7.52" duration="96.00" routeLength="669.33" waitingTime="0.00" waitingCount="0" stopTime="0.00" timeLoss="15.67" rerouteNo="0" devices="tripinfo_2" vType="DEFAULT_VEHTYPE" speedFactor="1.01" vaporized=""/>
    <tripinfo id="4" depart="13.00" departLane="279952229#0_0" departPos="5.10" departSpeed="0.00" departDelay="0.00" arrival="106.00" arrivalLane="-115602933#2_0" arrivalPos="75.56" arrivalSpeed="7.68" duration="93.00" routeLength="669.33" waitingTime="0.00" waitingCount="0" stopTime="0.00" timeLoss="13.85" rerouteNo="0" devices="tripinfo_4" vType="DEFAULT_VEHTYPE" speedFactor="1.03" vaporized=""/>
    <tripinfo id="3" depart="10.00" departLane="279952229#0_0" departPos="5.10" departSpeed="0.00" departDelay="3.00" arrival="108.00" arrivalLane="-115602933#2_0" arrivalPos="75.56" arrivalSpeed="8.53" duration="98.00" routeLength="668.45" waitingTime="5.00" waitingCount="1" stopTime="0.00" timeLoss="22.50" rerouteNo="0" devices="tripinfo_3" vType="DEFAULT_VEHTYPE" speedFactor="1.08" vaporized=""/>
    <tripinfo id="6" depart="19.00" departLane="279952229#0_0" departPos="5.10" departSpeed="0.00" departDelay="0.00" arrival="110.00" arrivalLane="-115602933#2_0" arrivalPos="75.56" arrivalSpeed="8.10" duration="91.00" routeLength="668.45" waitingTime="1.00" waitingCount="1" stopTime="0.00" timeLoss="13.64" rerouteNo="0" devices="tripinfo_6" vType="DEFAULT_VEHTYPE" speedFactor="1.05" vaporized=""/>
    <tripinfo id="8" depart="26.00" departLane="279952229#0_0" departPos="5.10" departSpeed="0.00" departDelay="1.00" arrival="124.00" arrivalLane="-115602933#2_0" arrivalPos="75.56" arrivalSpeed="7.68" duration="98.00" routeLength="669.33" waitingTime="0.00" waitingCount="0" stopTime="0.00" timeLoss="10.83" rerouteNo="0" devices="tripinfo_8" vType="DEFAULT_VEHTYPE" speedFactor="0.94" vaporized=""/>
    <tripinfo id="9" depart="29.00" departLane="279952229#0_0" departPos="5.10" departSpeed="0.00" departDelay="4.00" arrival="137.00" arrivalLane="-115602933#2_0" arrivalPos="75.56" arrivalSpeed="5.84" duration="108.00" routeLength="668.45" waitingTime="0.00" waitingCount="0" stopTime="0.00" timeLoss="13.25" rerouteNo="0" devices="tripinfo_9" vType="DEFAULT_VEHTYPE" speedFactor="0.86" vaporized=""/>
    <tripinfo id="10" depart="32.00" departLane="279952229#0_0" departPos="5.10" departSpeed="0.00" departDelay="1.00" arrival="139.00" arrivalLane="-115602933#2_0" arrivalPos="75.56" arrivalSpeed="9.00" duration="107.00" routeLength="668.45" waitingTime="0.00" waitingCount="0" stopTime="0.00" timeLoss="32.05" rerouteNo="0" devices="tripinfo_10" vType="DEFAULT_VEHTYPE" speedFactor="1.09" vaporized=""/>
    <tripinfo id="13" depart="41.00" departLane="279952229#0_0" departPos="5.10" departSpeed="0.00" departDelay="4.00" arrival="141.00" arrivalLane="-115602933#2_0" arrivalPos="75.56" arrivalSpeed="8.64" duration="100.00" routeLength="668.45" waitingTime="0.00" waitingCount="0" stopTime="0.00" timeLoss="27.47" rerouteNo="0" devices="tripinfo_13" vType="DEFAULT_VEHTYPE" speedFactor="1.12" vaporized=""/>
    <tripinfo id="19" depart="59.00" departLane="279952229#0_0" departPos="5.10" departSpeed="0.00" departDelay="4.00" arrival="143.00" arrivalLane="-115602933#2_0" arrivalPos="75.56" arrivalSpeed="9.32" duration="84.00" routeLength="669.33" waitingTime="0.00" waitingCount="0" stopTime="0.00" timeLoss="13.53" rerouteNo="0" devices="tripinfo_19" vType="DEFAULT_VEHTYPE" speedFactor="1.16" vaporized=""/>
    <tripinfo id="14" depart="44.00" departLane="279952229#0_0" departPos="5.10" departSpeed="0.00" departDelay="1.00" arrival="147.00" arrivalLane="-115602933#2_0" arrivalPos="75.56" arrivalSpeed="7.29" duration="103.00" routeLength="668.45" waitingTime="5.00" waitingCount="1" stopTime="0.00" timeLoss="21.18" rerouteNo="0" devices="tripinfo_14" vType="DEFAULT_VEHTYPE" speedFactor="0.99" vaporized=""/>
    <tripinfo id="18" depart="56.00" departLane="279952229#0_0" departPos="5.10" departSpeed="0.00" departDelay="1.00" arrival="154.00" arrivalLane="-115602933#2_0" arrivalPos="75.56" arrivalSpeed="7.46" duration="98.00" routeLength="668.45" waitingTime="0.00" waitingCount="0" stopTime="0.00" timeLoss="11.26" rerouteNo="0" devices="tripinfo_18" vType="DEFAULT_VEHTYPE" speedFactor="0.94" vaporized=""/>
    <tripinfo id="20" depart="62.00" departLane="279952229#0_0" departPos="5.10" departSpeed="0.00" departDelay="1.00" arrival="156.00" arrivalLane="-115602933#2_0" arrivalPos="75.56" arrivalSpeed="7.45" duration="94.00" routeLength="668.45" waitingTime="0.00" waitingCount="0" stopTime="0.00" timeLoss="14.36" rerouteNo="0" devices="tripinfo_20" vType="DEFAULT_VEHTYPE" speedFactor="1.02" vaporized=""/>
    <tripinfo id="25" depart="77.00" departLane="279952229#0_0" departPos="5.10" departSpeed="0.00" departDelay="4.00" arrival="182.00" arrivalLane="-115602933#2_0" arrivalPos="75.56" arrivalSpeed="6.68" duration="105.00" routeLength="669.33" waitingTime="0.00" waitingCount="0" stopTime="0.00" timeLoss="11.60" rerouteNo="0" devices="tripinfo_25" vType="DEFAULT_VEHTYPE" speedFactor="0.87" vaporized=""/>
    <tripinfo id="28" depart="86.00" departLane="279952229#0_0" departPos="5.10" departSpeed="0.00" departDelay="1.00" arrival="183.00" arrivalLane="-115602933#2_0" arrivalPos="75.56" arrivalSpeed="9.27" duration="97.00" routeLength="669.33" waitingTime="0.00" waitingCount="0" stopTime="0.00" timeLoss="25.55" rerouteNo="0" devices="tripinfo_28" vType="DEFAULT_VEHTYPE" speedFactor="1.13" vaporized=""/>
    <tripinfo id="29" depart="89.00" departLane="279952229#0_0" departPos="5.10" departSpeed="0.00" departDelay="4.00" arrival="188.00" arrivalLane="-115602933#2_0" arrivalPos="75.56" arrivalSpeed="7.55" duration="99.00" routeLength="669.33" waitingTime="0.00" waitingCount="0" stopTime="0.00" timeLoss="11.70" rerouteNo="0" devices="tripinfo_29" vType="DEFAULT_VEHTYPE" speedFactor="0.93" vaporized=""/>
    <tripinfo id="30" depart="92.00" departLane="279952229#0_0" departPos="5.10" departSpeed="0.00" departDelay="1.00" arrival="190.00" arrivalLane="-115602933#2_0" arrivalPos="75.56" arrivalSpeed="8.80" duration="98.00" routeLength="669.33" waitingTime="0.00" waitingCount="0" stopTime="0.00" timeLoss="28.85" rerouteNo="0" devices="tripinfo_30" vType="DEFAULT_VEHTYPE" speedFactor="1.18" vaporized=""/>
    <tripinfo id="26" depart="80.00" departLane="279952229#0_0" departPos="5.10" departSpeed="0.00" departDelay="1.00" arrival="195.00" arrivalLane="-115602933#2_0" arrivalPos="75.56" arrivalSpeed="6.98" duration="115.00" routeLength="668.45" waitingTime="13.00" waitingCount="1" stopTime="0.00" timeLoss="26.25" rerouteNo="0" devices="tripinfo_26" vType="DEFAULT_VEHTYPE" speedFactor="0.92" vaporized=""/>
    <tripinfo id="35" depart="107.00" departLane="279952229#0_0" departPos="5.10" departSpeed="0.00" departDelay="4.00" arrival="198.00" arrivalLane="-115602933#2_0" arrivalPos="75.56" arrivalSpeed="7.49" duration="91.00" routeLength="669.33" waitingTime="0.00" waitingCount="0" stopTime="0.00" timeLoss="10.84" rerouteNo="0" devices="tripinfo_35" vType="DEFAULT_VEHTYPE" speedFactor="1.02" vaporized=""/>
    <tripinfo id="36" depart="110.00" departLane="279952229#0_0" departPos="5.10" departSpeed="0.00" departDelay="1.00" arrival="205.00" arrivalLane="-115602933#2_0" arrivalPos="75.56" arrivalSpeed="7.27" duration="95.00" routeLength="669.33" waitingTime="0.00" waitingCount="0" stopTime="0.00" timeLoss="11.38" rerouteNo="0" devices="tripinfo_36" vType="DEFAULT_VEHTYPE" speedFactor="0.97" vaporized=""/>
    <tripinfo id="40" depart="122.00" departLane="279952229#0_0" departPos="5.10" departSpeed="0.00" departDelay="1.00" arrival="212.00" arrivalLane="-115602933#2_0" arrivalPos="75.56" arrivalSpeed="7.93" duration="90.00" routeLength="669.33" waitingTime="0.00" waitingCount="0" stopTime="0.00" timeLoss="10.63" rerouteNo="0" devices="tripinfo_40" vType="DEFAULT_VEHTYPE" speedFactor="1.03" vaporized=""/>
    <tripinfo id="27" depart="83.00" departLane="279952229#0_0" departPos="5.10" departSpeed="0.00" departDelay="4.00" arrival="217.00" arrivalLane="-115602933#2_0" arrivalPos="75.56" arrivalSpeed="7.46" duration="134.00" routeLength="668.45" waitingTime="28.00" waitingCount="2" stopTime="0.00" timeLoss="48.31" rerouteNo="0" devices="tripinfo_27" vType="DEFAULT_VEHTYPE" speedFactor="0.95" vaporized=""/>
    <tripinfo id="31" depart="95.00" departLane="279952229#0_0" departPos="5.10" departSpeed="0.00" departDelay="4.00" arrival="219.00" arrivalLane="-115602933#2_0" arrivalPos="75.56" arrivalSpeed="8.86" duration="124.00" routeLength="668.45" waitingTime="26.00" waitingCount="2" stopTime="0.00" timeLoss="53.25" rerouteNo="0" devices="tripinfo_31" vType="DEFAULT_VEHTYPE" speedFactor="1.15" vaporized=""/>
    <tripinfo id="32" depart="98.00" departLane="279952229#0_0" departPos="5.10" departSpeed="0.00" departDelay="1.00" arrival="221.00" arrivalLane="-115602933#2_0" arrivalPos="75.56" arrivalSpeed="8.25" duration="123.00" routeLength="668.45" waitingTime="21.00" waitingCount="2" stopTime="0.00" timeLoss="42.35" rerouteNo="0" devices="tripinfo_32" vType="DEFAULT_VEHTYPE" speedFactor="1.01" vaporized=""/>
    <tripinfo id="33" depart="101.00" departLane="279952229#0_0" departPos="5.10" departSpeed="0.00" departDelay="4.00" arrival="223.00" arrivalLane="-115602933#2_0" arrivalPos="75.56" arrivalSpeed="8.60" duration="122.00" routeLength="668.45" waitingTime="21.00" waitingCount="2" stopTime="0.00" timeLoss="52.51" rerouteNo="0" devices="tripinfo_33" vType="DEFAULT_VEHTYPE" speedFactor="1.17" vaporized=""/>
    <tripinfo id="34" depart="104.00" departLane="279952229#0_0" departPos="5.10" departSpeed="0.00" departDelay="1.00" arrival="227.00" arrivalLane="-115602933#2_0" arrivalPos="75.56" arrivalSpeed="7.58" duration="123.00" routeLength="668.45" waitingTime="16.00" waitingCount="2" stopTime="0.00" timeLoss="41.25" rerouteNo="0" devices="tripinfo_34" vType="DEFAULT_VEHTYPE" speedFactor="0.99" vaporized=""/>
    <tripinfo id="46" depart="139.00" departLane="279952229#0_0" departPos="5.10" departSpeed="0.00" departDelay="0.00" arrival="231.00" arrivalLane="-115602933#2_0" arrivalPos="75.56" arrivalSpeed="7.20" duration="92.00" routeLength="669.33" waitingTime="0.00" waitingCount="0" stopTime="0.00" timeLoss="10.73" rerouteNo="0" devices="tripinfo_46" vType="DEFAULT_VEHTYPE" speedFactor="1.00" vaporized=""/>
    <tripinfo id="5" depart="16.00" departLane="279952229#0_0" departPos="5.10" departSpeed="0.00" departDelay="3.00" arrival="245.00" arrivalLane="-115602933#2_0" arrivalPos="75.56" arrivalSpeed="6.20" duration="229.00" routeLength="1200.24" waitingTime="28.00" waitingCount="2" stopTime="0.00" timeLoss="54.51" rerouteNo="0" devices="tripinfo_5" vType="DEFAULT_VEHTYPE" speedFactor="0.83" vaporized=""/>
    <tripinfo id="7" depart="23.00" departLane="279952229#0_0" departPos="5.10" departSpeed="0.00" departDelay="4.00" arrival="247.00" arrivalLane="-115602933#2_0" arrivalPos="75.56" arrivalSpeed="6.59" duration="224.00" routeLength="1200.24" waitingTime="28.00" waitingCount="2" stopTime="0.00" timeLoss="60.54" rerouteNo="0" devices="tripinfo_7" vType="DEFAULT_VEHTYPE" speedFactor="0.89" vaporized=""/>
    <tripinfo id="48" depart="146.00" departLane="279952229#0_0" departPos="5.10" departSpeed="0.00" departDelay="1.00" arrival="250.00" arrivalLane="-115602933#2_0" arrivalPos="75.56" arrivalSpeed="6.74" duration="104.00" routeLength="669.33" waitingTime="0.00" waitingCount="0" stopTime="0.00" timeLoss="11.09" rerouteNo="0" devices="tripinfo_48" vType="DEFAULT_VEHTYPE" speedFactor="0.88" vaporized=""/>
    <tripinfo id="52" depart="158.00" departLane="279952229#0_0" departPos="5.10" departSpeed="0.00" departDelay="1.00" arrival="252.00" arrivalLane="-115602933#2_0" arrivalPos="75.56" arrivalSpeed="7.96" duration="94.00" routeLength="669.33" waitingTime="0.00" waitingCount="0" stopTime="0.00" timeLoss="13.80" rerouteNo="0" devices="tripinfo_52" vType="DEFAULT_VEHTYPE" speedFactor="1.02" vaporized=""/>
    <tripinfo id="53" depart="161.00" departLane="279952229#0_0" departPos="5.10" departSpeed="0.00" departDelay="4.00" arrival="254.00" arrivalLane="-115602933#2_0" arrivalPos="75.56" arrivalSpeed="7.88" duration="93.00" routeLength="669.33" waitingTime="0.00" waitingCount="0" stopTime="0.00" timeLoss="18.52" rerouteNo="0" devices="tripinfo_53" vType="DEFAULT_VEHTYPE" speedFactor="1.10" vaporized=""/>
    <tripinfo id="54" depart="164.00" departLane="279952229#0_0" departPos="5.10" departSpeed="0.00" departDelay="1.00" arrival="257.00" arrivalLane="-115602933#2_0" arrivalPos="75.56" arrivalSpeed="7.27" duration="93.00" routeLength="669.33" waitingTime="0.00" waitingCount="0" stopTime="0.00" timeLoss="11.66" rerouteNo="0" devices="tripinfo_54" vType="DEFAULT_VEHTYPE" speedFactor="1.00" vaporized=""/>
    <tripinfo id="11" depart="35.00" departLane="279952229#0_0" departPos="5.10" departSpeed="0.00" departDelay="4.00" arrival="259.00" arrivalLane="-115602933#2_0" arrivalPos="75.56" arrivalSpeed="7.88" duration="224.00" routeLength="1200.24" waitingTime="38.00" waitingCount="3" stopTime="0.00" timeLoss="82.28" rerouteNo="0" devices="tripinfo_11" vType="DEFAULT_VEHTYPE" speedFactor="1.03" vaporized=""/>
    <tripinfo id="12" depart="38.00" departLane="279952229#0_0" departPos="5.10" departSpeed="0.00" departDelay="1.00" arrival="262.00" arrivalLane="-115602933#2_0" arrivalPos="75.56" arrivalSpeed="7.69" duration="224.00" routeLength="1200.24" waitingTime="36.00" waitingCount="3" stopTime="0.00" timeLoss="84.86" rerouteNo="0" devices="tripinfo_12" vType="DEFAULT_VEHTYPE" speedFactor="1.05" vaporized=""/>
    <tripinfo id="15" depart="47.00" departLane="279952229#0_0" departPos="5.10" departSpeed="0.00" departDelay="4.00" arrival="267.00" arrivalLane="-115602933#2_0" arrivalPos="75.56" arrivalSpeed="6.89" duration="220.00" routeLength="1200.24" waitingTime="28.00" waitingCount="3" stopTime="0.00" timeLoss="63.06" rerouteNo="0" devices="tripinfo_15" vType="DEFAULT_VEHTYPE" speedFactor="0.93" vaporized=""/>
    <tripinfo id="16" depart="50.00" departLane="279952229#0_0" departPos="5.10" departSpeed="0.00" departDelay="1.00" arrival="272.00" arrivalLane="-115602933#2_0" arrivalPos="75.56" arrivalSpeed="6.32" duration="222.00" routeLength="1200.24" waitingTime="18.00" waitingCount="3" stopTime="0.00" timeLoss="56.62" rerouteNo="0" devices="tripinfo_16" vType="DEFAULT_VEHTYPE" speedFactor="0.88" vaporized=""/>
    <tripinfo id="17" depart="53.00" departLane="279952229#0_0" departPos="5.10" departSpeed="0.00" departDelay="4.00" arrival="274.00" arrivalLane="-115602933#2_0" arrivalPos="75.56" arrivalSpeed="7.11" duration="221.00" routeLength="1200.24" waitingTime="17.00" waitingCount="4" stopTime="0.00" timeLoss="66.82" rerouteNo="0" devices="tripinfo_17" vType="DEFAULT_VEHTYPE" speedFactor="0.94" vaporized=""/>
    <tripinfo id="21" depart="65.00" departLane="279952229#0_0" departPos="5.10" departSpeed="0.00" departDelay="4.00" arrival="276.00" arrivalLane="-115602933#2_0" arrivalPos="75.56" arrivalSpeed="8.30" duration="211.00" routeLength="1200.24" waitingTime="15.00" waitingCount="4" stopTime="0.00" timeLoss="66.99" rerouteNo="0" devices="tripinfo_21" vType="DEFAULT_VEHTYPE" speedFactor="1.01" vaporized=""/>
    <tripinfo id="22" depart="68.00" departLane="279952229#0_0" departPos="5.10" departSpeed="0.00" departDelay="1.00" arrival="278.00" arrivalLane="-115602933#2_0" arrivalPos="75.56" arrivalSpeed="7.56" duration="210.00" routeLength="1200.24" waitingTime="15.00" waitingCount="3" stopTime="0.00" timeLoss="61.51" rerouteNo="0" devices="tripinfo_22" vType="DEFAULT_VEHTYPE" speedFactor="0.97" vaporized=""/>
    <tripinfo id="23" depart="71.00" departLane="279952229#0_0" departPos="5.10" departSpeed="0.00" departDelay="4.00" arrival="283.00" arrivalLane="-115602933#2_0" arrivalPos="75.56" arrivalSpeed="6.72" duration="212.00" routeLength="1200.24" waitingTime="10.00" waitingCount="2" stopTime="0.00" timeLoss="48.50" rerouteNo="0" devices="tripinfo_23" vType="DEFAULT_VEHTYPE" speedFactor="0.89" vaporized=""/>
    <tripinfo id="37" depart="113.00" departLane="279952229#0_0" departPos="5.10" departSpeed="0.00" departDelay="4.00" arrival="285.00" arrivalLane="-115602933#2_0" arrivalPos="75.56" arrivalSpeed="8.64" duration="172.00" routeLength="668.45" waitingTime="69.00" waitingCount="4" stopTime="0.00" timeLoss="102.80" rerouteNo="0" devices="tripinfo_37" vType="DEFAULT_VEHTYPE" speedFactor="1.18" vaporized=""/>
    <tripinfo id="63" depart="191.00" departLane="279952229#0_0" departPos="5.10" departSpeed="0.00" departDelay="4.00" arrival="287.00" arrivalLane="-115602933#2_0" arrivalPos="75.56" arrivalSpeed="7.50" duration="96.00" routeLength="669.33" waitingTime="0.00" waitingCount="0" stopTime="0.00" timeLoss="13.46" rerouteNo="0" devices="tripinfo_63" vType="DEFAULT_VEHTYPE" speedFactor="0.99" vaporized=""/>
    <tripinfo id="64" depart="194.00" departLane="279952229#0_0" departPos="5.10" departSpeed="0.00" departDelay="1.00" arrival="292.00" arrivalLane="-115602933#2_0" arrivalPos="75.56" arrivalSpeed="7.44" duration="98.00" routeLength="669.33" waitingTime="0.00" waitingCount="0" stopTime="0.00" timeLoss="11.38" rerouteNo="0" devices="tripinfo_64" vType="DEFAULT_VEHTYPE" speedFactor="0.94" vaporized=""/>
    <tripinfo id="69" depart="209.00" departLane="279952229#0_0" departPos="5.10" departSpeed="0.00" departDelay="4.00" arrival="298.00" arrivalLane="-115602933#2_0" arrivalPos="75.56" arrivalSpeed="7.43" duration="89.00" routeLength="669.33" waitingTime="0.00" waitingCount="0" stopTime="0.00" timeLoss="9.91" rerouteNo="0" devices="tripinfo_69" vType="DEFAULT_VEHTYPE" speedFactor="1.02" vaporized=""/>
    <tripinfo id="70" depart="212.00" departLane="279952229#0_0" departPos="5.10" departSpeed="0.00" departDelay="1.00" arrival="303.00" arrivalLane="-115602933#2_0" arrivalPos="75.56" arrivalSpeed="7.75" duration="91.00" routeLength="669.33" waitingTime="0.00" waitingCount="0" stopTime="0.00" timeLoss="11.29" rerouteNo="0" devices="tripinfo_70" vType="DEFAULT_VEHTYPE" speedFactor="1.02" vaporized=""/>
    <tripinfo id="24" depart="74.00" departLane="279952229#0_0" departPos="5.10" departSpeed="0.00" departDelay="1.00" arrival="314.00" arrivalLane="-115602933#2_0" arrivalPos="75.56" arrivalSpeed="6.73" duration="240.00" routeLength="1200.24" waitingTime="27.00" waitingCount="3" stopTime="0.00" timeLoss="64.52" rerouteNo="0" devices="tripinfo_24" vType="DEFAULT_VEHTYPE" speedFactor="0.83" vaporized=""/>
    <tripinfo id="72" depart="218.00" departLane="279952229#0_0" departPos="5.10" departSpeed="0.00" departDelay="1.00" arrival="316.00" arrivalLane="-115602933#2_0" arrivalPos="75.56" arrivalSpeed="7.26" duration="98.00" routeLength="669.33" waitingTime="0.00" waitingCount="0" stopTime="0.00" timeLoss="11.95" rerouteNo="0" devices="tripinfo_72" vType="DEFAULT_VEHTYPE" speedFactor="0.94" vaporized=""/>
    <tripinfo id="43" depart="131.00" departLane="279952229#0_0" departPos="5.10" departSpeed="0.00" departDelay="4.00" arrival="318.00" arrivalLane="-115602933#2_0" arrivalPos="75.56" arrivalSpeed="7.65" duration="187.00" routeLength="1200.24" waitingTime="21.00" waitingCount="2" stopTime="0.00" timeLoss="47.58" rerouteNo="0" devices="tripinfo_43" vType="DEFAULT_VEHTYPE" speedFactor="1.04" vaporized=""/>
    <tripinfo id="44" depart="134.00" departLane="279952229#0_0" departPos="5.10" departSpeed="0.00" departDelay="1.00" arrival="320.00" arrivalLane="-115602933#2_0" arrivalPos="75.56" arrivalSpeed="8.47" duration="186.00" routeLength="1200.24" waitingTime="19.00" waitingCount="2" stopTime="0.00" timeLoss="47.16" rerouteNo="0" devices="tripinfo_44" vType="DEFAULT_VEHTYPE" speedFactor="1.04" vaporized=""/>
    <tripinfo id="45" depart="137.00" departLane="279952229#0_0" departPos="5.10" departSpeed="0.00" departDelay="4.00" arrival="323.00" arrivalLane="-115602933#2_0" arrivalPos="75.56" arrivalSpeed="8.73" duration="186.00" routeLength="1200.24" waitingTime="17.00" waitingCount="2" stopTime="0.00" timeLoss="52.26" rerouteNo="0" devices="tripinfo_45" vType="DEFAULT_VEHTYPE" speedFactor="1.09" vaporized=""/>
    <tripinfo id="38" depart="116.00" departLane="279952229#0_0" departPos="5.10" departSpeed="0.00" departDelay="1.00" arrival="325.00" arrivalLane="-115602933#2_0" arrivalPos="75.56" arrivalSpeed="8.98" duration="209.00" routeLength="668.45" waitingTime="102.00" waitingCount="4" stopTime="0.00" timeLoss="135.10" rerouteNo="0" devices="tripinfo_38" vType="DEFAULT_VEHTYPE" speedFactor="1.10" vaporized=""/>
    <tripinfo id="39" depart="119.00" departLane="279952229#0_0" departPos="5.10" departSpeed="0.00" departDelay="4.00" arrival="330.00" arrivalLane="-115602933#2_0" arrivalPos="75.56" arrivalSpeed="7.25" duration="211.00" routeLength="668.45" waitingTime="95.00" waitingCount="3" stopTime="0.00" timeLoss="120.41" rerouteNo="0" devices="tripinfo_39" vType="DEFAULT_VEHTYPE" speedFactor="0.90" vaporized=""/>
    <tripinfo id="80" depart="242.00" departLane="279952229#0_0" departPos="5.10" departSpeed="0.00" departDelay="1.00" arrival="332.00" arrivalLane="-115602933#2_0" arrivalPos="75.56" arrivalSpeed="8.03" duration="90.00" routeLength="669.33" waitingTime="0.00" waitingCount="0" stopTime="0.00" timeLoss="11.34" rerouteNo="0" devices="tripinfo_80" vType="DEFAULT_VEHTYPE" speedFactor="1.03" vaporized=""/>
    <tripinfo id="81" depart="245.00" departLane="279952229#0_0" departPos="5.10" departSpeed="0.00" departDelay="4.00" arrival="337.00" arrivalLane="-115602933#2_0" arrivalPos="75.56" arrivalSpeed="7.76" duration="92.00" routeLength="669.33" waitingTime="0.00" waitingCount="0" stopTime="0.00" timeLoss="10.49" rerouteNo="0" devices="tripinfo_81" vType="DEFAULT_VEHTYPE" speedFactor="1.00" vaporized=""/>
    <tripinfo id="83" depart="251.00" departLane="279952229#0_0" departPos="5.10" departSpeed="0.00" departDelay="4.00" arrival="346.00" arrivalLane="-115602933#2_0" arrivalPos="75.56" arrivalSpeed="7.78" duration="95.00" routeLength="669.33" waitingTime="0.00" waitingCount="0" stopTime="0.00" timeLoss="11.39" rerouteNo="0" devices="tripinfo_83" vType="DEFAULT_VEHTYPE" speedFactor="0.97" vaporized=""/>
    <tripinfo id="49" depart="149.00" departLane="279952229#0_0" departPos="5.10" departSpeed="0.00" departDelay="4.00" arrival="355.00" arrivalLane="-115602933#2_0" arrivalPos="75.56" arrivalSpeed="6.95" duration="206.00" routeLength="1200.24" waitingTime="11.00" waitingCount="2" stopTime="0.00" timeLoss="35.21" rerouteNo="0" devices="tripinfo_49" vType="DEFAULT_VEHTYPE" speedFactor="0.85" vaporized=""/>
    <tripinfo id="51" depart="155.00" departLane="279952229#0_0" departPos="5.10" departSpeed="0.00" departDelay="4.00" arrival="357.00" arrivalLane="-115602933#2_0" arrivalPos="75.56" arrivalSpeed="9.39" duration="202.00" routeLength="1200.24" waitingTime="9.00" waitingCount="1" stopTime="0.00" timeLoss="77.57" rerouteNo="0" devices="tripinfo_51" vType="DEFAULT_VEHTYPE" speedFactor="1.17" vaporized=""/>
    <tripinfo id="56" depart="170.00" departLane="279952229#0_0" departPos="5.10" departSpeed="0.00" departDelay="1.00" arrival="360.00" arrivalLane="-115602933#2_0" arrivalPos="75.56" arrivalSpeed="6.31" duration="190.00" routeLength="1200.24" waitingTime="3.00" waitingCount="1" stopTime="0.00" timeLoss="27.97" rerouteNo="0" devices="tripinfo_56" vType="DEFAULT_VEHTYPE" speedFactor="0.90" vaporized=""/>
    <tripinfo id="57" depart="173.00" departLane="279952229#0_0" departPos="5.10" departSpeed="0.00" departDelay="4.00" arrival="361.00" arrivalLane="-115602933#2_0" arrivalPos="75.56" arrivalSpeed="8.58" duration="188.00" routeLength="1200.24" waitingTime="2.00" waitingCount="1" stopTime="0.00" timeLoss="61.49" rerouteNo="0" devices="tripinfo_57" vType="DEFAULT_VEHTYPE" speedFactor="1.14" vaporized=""/>
    <tripinfo id="58" depart="176.00" departLane="279952229#0_0" departPos="5.10" departSpeed="0.00" departDelay="1.00" arrival="364.00" arrivalLane="-115602933#2_0" arrivalPos="75.56" arrivalSpeed="7.56" duration="188.00" routeLength="1200.24" waitingTime="5.00" waitingCount="1" stopTime="0.00" timeLoss="45.76" rerouteNo="0" devices="tripinfo_58" vType="DEFAULT_VEHTYPE" speedFactor="1.02" vaporized=""/>
    <tripinfo id="59" depart="179.00" departLane="279952229#0_0" departPos="5.10" departSpeed="0.00" departDelay="4.00" arrival="366.00" arrivalLane="-115602933#2_0" arrivalPos="75.56" arrivalSpeed="7.57" duration="187.00" routeLength="1200.24" waitingTime="4.00" waitingCount="1" stopTime="0.00" timeLoss="37.20" rerouteNo="0" devices="tripinfo_59" vType="DEFAULT_VEHTYPE" speedFactor="0.97" vaporized=""/>
    <tripinfo id="60" depart="182.00" departLane="279952229#0_0" departPos="5.10" departSpeed="0.00" departDelay="1.00" arrival="368.00" arrivalLane="-115602933#2_0" arrivalPos="75.56" arrivalSpeed="8.50" duration="186.00" routeLength="1200.24" waitingTime="4.00" waitingCount="1" stopTime="0.00" timeLoss="51.86" rerouteNo="0" devices="tripinfo_60" vType="DEFAULT_VEHTYPE" speedFactor="1.08" vaporized=""/>
    <tripinfo id="62" depart="188.00" departLane="279952229#0_0" departPos="5.10" departSpeed="0.00" departDelay="1.00" arrival="371.00" arrivalLane="-115602933#2_0" arrivalPos="75.56" arrivalSpeed="7.42" duration="183.00" routeLength="1200.24" waitingTime="2.00" waitingCount="1" stopTime="0.00" timeLoss="39.86" rerouteNo="0" devices="tripinfo_62" vType="DEFAULT_VEHTYPE" speedFactor="1.02" vaporized=""/>
    <tripinfo id="41" depart="125.00" departLane="279952229#0_0" departPos="5.10" departSpeed="0.00" departDelay="4.00" arrival="373.00" arrivalLane="-115602933#2_0" arrivalPos="75.56" arrivalSpeed="7.63" duration="248.00" routeLength="668.45" waitingTime="130.00" waitingCount="5" stopTime="0.00" timeLoss="162.98" rerouteNo="0" devices="tripinfo_41" vType="DEFAULT_VEHTYPE" speedFactor="0.96" vaporized=""/>
    <tripinfo id="65" depart="197.00" departLane="279952229#0_0" departPos="5.10" departSpeed="0.00" departDelay="4.00" arrival="381.00" arrivalLane="-115602933#2_0" arrivalPos="75.56" arrivalSpeed="7.31" duration="184.00" routeLength="1200.24" waitingTime="0.00" waitingCount="0" stopTime="0.00" timeLoss="19.16" rerouteNo="0" devices="tripinfo_65" vType="DEFAULT_VEHTYPE" speedFactor="0.88" vaporized=""/>
    <tripinfo id="92" depart="278.00" departLane="279952229#0_0" departPos="5.10" departSpeed="0.00" departDelay="1.00" arrival="388.00" arrivalLane="-115602933#2_0" arrivalPos="75.56" arrivalSpeed="6.17" duration="110.00" routeLength="669.33" waitingTime="0.00" waitingCount="0" stopTime="0.00" timeLoss="12.53" rerouteNo="0" devices="tripinfo_92" vType="DEFAULT_VEHTYPE" speedFactor="0.83" vaporized=""/>
    <tripinfo id="96" depart="290.00" departLane="279952229#0_0" departPos="5.10" departSpeed="0.00" departDelay="1.00" arrival="390.00" arrivalLane="-115602933#2_0" arrivalPos="75.56" arrivalSpeed="7.77" duration="100.00" routeLength="669.33" waitingTime="0.00" waitingCount="0" stopTime="0.00" timeLoss="19.70" rerouteNo="0" devices="tripinfo_96" vType="DEFAULT_VEHTYPE" speedFactor="1.01" vaporized=""/>
    <tripinfo id="66" depart="200.00" departLane="279952229#0_0" departPos="5.10" departSpeed="0.00" departDelay="1.00" arrival="393.00" arrivalLane="-115602933#2_0" arrivalPos="75.56" arrivalSpeed="6.31" duration="193.00" routeLength="1200.24" waitingTime="3.00" waitingCount="2" stopTime="0.00" timeLoss="32.83" rerouteNo="0" devices="tripinfo_66" vType="DEFAULT_VEHTYPE" speedFactor="0.91" vaporized=""/>
    <tripinfo id="67" depart="203.00" departLane="279952229#0_0" departPos="5.10" departSpeed="0.00" departDelay="4.00" arrival="395.00" arrivalLane="-115602933#2_0" arrivalPos="75.56" arrivalSpeed="7.31" duration="192.00" routeLength="1200.24" waitingTime="2.00" waitingCount="1" stopTime="0.00" timeLoss="33.02" rerouteNo="0" devices="tripinfo_67" vType="DEFAULT_VEHTYPE" speedFactor="0.91" vaporized=""/>