<?xml version="1.0" encoding="UTF-8"?>

<!-- generated on 2024-01-15 14:38:55 by Eclipse SUMO sumo Version 1.19.0
<configuration xmlns:xsi="http://www.w3.org/2001/XMLSchema-instance" xsi:noNamespaceSchemaLocation="http://sumo.dlr.de/xsd/sumoConfiguration.xsd">

    <input>
        <net-file value="../Network_and_config/csomor.net.xml"/>
    </input>

    <output>
        <summary-output value="../Network_and_config/summary.xml"/>
        <tripinfo-output value="../Network_and_config/tripinfo.xml"/>
    </output>

    <traci_server>
        <remote-port value="55840"/>
    </traci_server>

</configuration>
-->

<tripinfos xmlns:xsi="http://www.w3.org/2001/XMLSchema-instance" xsi:noNamespaceSchemaLocation="http://sumo.dlr.de/xsd/tripinfo_file.xsd">
    <tripinfo id="vehicle1_0" depart="1.00" departLane="279952229#0_0" departPos="5.10" departSpeed="0.00" departDelay="0.00" arrival="131.00" arrivalLane="-115602933#2_0" arrivalPos="64.53" arrivalSpeed="7.74" duration="130.00" routeLength="983.52" waitingTime="0.00" waitingCount="0" stopTime="0.00" timeLoss="16.73" rerouteNo="0" devices="tripinfo_vehicle1_0" vType="DEFAULT_VEHTYPE" speedFactor="1.06" vaporized=""/>
    <tripinfo id="vehicle1_12" depart="13.00" departLane="279952229#0_0" departPos="5.10" departSpeed="0.00" departDelay="0.00" arrival="198.00" arrivalLane="-115602933#2_0" arrivalPos="64.53" arrivalSpeed="8.16" duration="185.00" routeLength="983.52" waitingTime="44.00" waitingCount="2" stopTime="0.00" timeLoss="69.40" rerouteNo="0" devices="tripinfo_vehicle1_12" vType="DEFAULT_VEHTYPE" speedFactor="1.03" vaporized=""/>
    <tripinfo id="vehicle1_6" depart="7.00" departLane="279952229#0_0" departPos="5.10" departSpeed="0.00" departDelay="0.00" arrival="201.00" arrivalLane="-115602933#2_0" arrivalPos="64.53" arrivalSpeed="7.36" duration="194.00" routeLength="1334.10" waitingTime="8.00" waitingCount="1" stopTime="0.00" timeLoss="33.39" rerouteNo="0" devices="tripinfo_vehicle1_6" vType="DEFAULT_VEHTYPE" speedFactor="1.01" vaporized=""/>
    <tripinfo id="vehicle2_0" depart="1.00" departLane="115604053_0" departPos="5.10" departSpeed="0.00" departDelay="0.00" arrival="203.00" arrivalLane="-441496282#1_0" arrivalPos="70.64" arrivalSpeed="7.64" duration="202.00" routeLength="1457.20" waitingTime="0.00" waitingCount="0" stopTime="0.00" timeLoss="24.05" rerouteNo="0" devices="tripinfo_vehicle2_0" vType="DEFAULT_VEHTYPE" speedFactor="0.94" vaporized=""/>
    <tripinfo id="vehicle2_6" depart="7.00" departLane="115604053_0" departPos="5.10" departSpeed="0.00" departDelay="0.00" arrival="207.00" arrivalLane="-441496282#1_0" arrivalPos="70.64" arrivalSpeed="8.02" duration="200.00" routeLength="1457.20" waitingTime="15.00" waitingCount="1" stopTime="0.00" timeLoss="46.52" rerouteNo="0" devices="tripinfo_vehicle2_6" vType="DEFAULT_VEHTYPE" speedFactor="1.08" vaporized=""/>
    <tripinfo id="vehicle1_18" depart="19.00" departLane="279952229#0_0" departPos="5.10" departSpeed="0.00" departDelay="0.00" arrival="215.00" arrivalLane="-115602933#2_0" arrivalPos="64.53" arrivalSpeed="8.38" duration="196.00" routeLength="1298.62" waitingTime="20.00" waitingCount="2" stopTime="0.00" timeLoss="44.44" rerouteNo="0" devices="tripinfo_vehicle1_18" vType="DEFAULT_VEHTYPE" speedFactor="1.05" vaporized=""/>
    <tripinfo id="vehicle1_42" depart="43.00" departLane="279952229#0_0" departPos="5.10" departSpeed="0.00" departDelay="0.00" arrival="227.00" arrivalLane="-115602933#2_0" arrivalPos="64.53" arrivalSpeed="8.04" duration="184.00" routeLength="1334.10" waitingTime="0.00" waitingCount="0" stopTime="0.00" timeLoss="20.25" rerouteNo="0" devices="tripinfo_vehicle1_42" vType="DEFAULT_VEHTYPE" speedFactor="0.99" vaporized=""/>
    <tripinfo id="vehicle1_24" depart="25.00" departLane="279952229#0_0" departPos="5.10" departSpeed="0.00" departDelay="0.00" arrival="231.00" arrivalLane="-115602933#2_0" arrivalPos="64.53" arrivalSpeed="7.31" duration="206.00" routeLength="1298.62" waitingTime="11.00" waitingCount="1" stopTime="0.00" timeLoss="37.57" rerouteNo="0" devices="tripinfo_vehicle1_24" vType="DEFAULT_VEHTYPE" speedFactor="0.94" vaporized=""/>
    <tripinfo id="vehicle2_18" depart="19.00" departLane="115604053_0" departPos="5.10" departSpeed="0.00" departDelay="0.00" arrival="236.00" arrivalLane="-441496282#1_0" arrivalPos="70.64" arrivalSpeed="6.51" duration="217.00" routeLength="1457.20" waitingTime="0.00" waitingCount="0" stopTime="0.00" timeLoss="28.87" rerouteNo="0" devices="tripinfo_vehicle2_18" vType="DEFAULT_VEHTYPE" speedFactor="0.89" vaporized=""/>
    <tripinfo id="vehicle2_54" depart="55.00" departLane="115604053_0" departPos="5.10" departSpeed="0.00" departDelay="0.00" arrival="247.00" arrivalLane="-441496282#1_0" arrivalPos="70.64" arrivalSpeed="8.97" duration="192.00" routeLength="1457.20" waitingTime="7.00" waitingCount="1" stopTime="0.00" timeLoss="48.60" rerouteNo="0" devices="tripinfo_vehicle2_54" vType="DEFAULT_VEHTYPE" speedFactor="1.16" vaporized=""/>
    <tripinfo id="vehicle1_54" depart="55.00" departLane="279952229#0_0" departPos="5.10" departSpeed="0.00" departDelay="0.00" arrival="263.00" arrivalLane="-115602933#2_0" arrivalPos="64.53" arrivalSpeed="7.10" duration="208.00" routeLength="1334.10" waitingTime="10.00" waitingCount="1" stopTime="0.00" timeLoss="34.93" rerouteNo="0" devices="tripinfo_vehicle1_54" vType="DEFAULT_VEHTYPE" speedFactor="0.94" vaporized=""/>
    <tripinfo id="vehicle1_60" depart="61.00" departLane="279952229#0_0" departPos="5.10" departSpeed="0.00" departDelay="0.00" arrival="272.00" arrivalLane="-115602933#2_0" arrivalPos="64.53" arrivalSpeed="7.76" duration="211.00" routeLength="1334.10" waitingTime="16.00" waitingCount="2" stopTime="0.00" timeLoss="51.08" rerouteNo="0" devices="tripinfo_vehicle1_60" vType="DEFAULT_VEHTYPE" speedFactor="1.02" vaporized=""/>
    <tripinfo id="vehicle1_78" depart="79.00" departLane="279952229#0_0" departPos="5.10" departSpeed="0.00" departDelay="0.00" arrival="284.00" arrivalLane="-115602933#2_0" arrivalPos="64.53" arrivalSpeed="7.40" duration="205.00" routeLength="1334.10" waitingTime="2.00" waitingCount="1" stopTime="0.00" timeLoss="27.94" rerouteNo="0" devices="tripinfo_vehicle1_78" vType="DEFAULT_VEHTYPE" speedFactor="0.92" vaporized=""/>
    <tripinfo id="vehicle2_12" depart="13.00" departLane="115604053_0" departPos="5.10" departSpeed="0.00" departDelay="0.00" arrival="291.00" arrivalLane="-441496282#1_0" arrivalPos="70.64" arrivalSpeed="5.79" duration="278.00" routeLength="1733.56" waitingTime="2.00" waitingCount="1" stopTime="0.00" timeLoss="37.48" rerouteNo="0" devices="tripinfo_vehicle2_12" vType="DEFAULT_VEHTYPE" speedFactor="0.83" vaporized=""/>
    <tripinfo id="vehicle2_36" depart="37.00" departLane="115604053_0" departPos="5.10" departSpeed="0.00" departDelay="0.00" arrival="293.00" arrivalLane="-441496282#1_0" arrivalPos="70.64" arrivalSpeed="9.32" duration="256.00" routeLength="1733.56" waitingTime="1.00" waitingCount="1" stopTime="0.00" timeLoss="78.06" rerouteNo="0" devices="tripinfo_vehicle2_36" vType="DEFAULT_VEHTYPE" speedFactor="1.12" vaporized=""/>
    <tripinfo id="vehicle2_24" depart="25.00" departLane="115604053_0" departPos="5.10" departSpeed="0.00" departDelay="0.00" arrival="317.00" arrivalLane="-441496282#1_0" arrivalPos="70.64" arrivalSpeed="6.24" duration="292.00" routeLength="1456.88" waitingTime="65.00" waitingCount="2" stopTime="0.00" timeLoss="97.74" rerouteNo="0" devices="tripinfo_vehicle2_24" vType="DEFAULT_VEHTYPE" speedFactor="0.86" vaporized=""/>
    <tripinfo id="vehicle2_30" depart="31.00" departLane="115604053_0" departPos="5.10" departSpeed="0.00" departDelay="0.00" arrival="319.00" arrivalLane="-441496282#1_0" arrivalPos="70.64" arrivalSpeed="7.61" duration="288.00" routeLength="1456.88" waitingTime="62.00" waitingCount="2" stopTime="0.00" timeLoss="125.69" rerouteNo="0" devices="tripinfo_vehicle2_30" vType="DEFAULT_VEHTYPE" speedFactor="1.03" vaporized=""/>
    <tripinfo id="vehicle2_42" depart="43.00" departLane="115604053_0" departPos="5.10" departSpeed="0.00" departDelay="0.00" arrival="321.00" arrivalLane="-441496282#1_0" arrivalPos="70.64" arrivalSpeed="6.54" duration="278.00" routeLength="1456.88" waitingTime="61.00" waitingCount="3" stopTime="0.00" timeLoss="98.05" rerouteNo="0" devices="tripinfo_vehicle2_42" vType="DEFAULT_VEHTYPE" speedFactor="0.93" vaporized=""/>
    <tripinfo id="vehicle2_102" depart="103.00" departLane="115604053_0" departPos="5.10" departSpeed="0.00" departDelay="0.00" arrival="339.00" arrivalLane="-441496282#1_0" arrivalPos="70.64" arrivalSpeed="7.63" duration="236.00" routeLength="1733.56" waitingTime="11.00" waitingCount="1" stopTime="0.00" timeLoss="40.95" rerouteNo="0" devices="tripinfo_vehicle2_102" vType="DEFAULT_VEHTYPE" speedFactor="1.02" vaporized=""/>
    <tripinfo id="vehicle2_48" depart="49.00" departLane="115604053_0" departPos="5.10" departSpeed="0.00" departDelay="0.00" arrival="350.00" arrivalLane="-441496282#1_0" arrivalPos="70.64" arrivalSpeed="7.46" duration="301.00" routeLength="1456.88" waitingTime="79.00" waitingCount="4" stopTime="0.00" timeLoss="124.02" rerouteNo="0" devices="tripinfo_vehicle2_48" vType="DEFAULT_VEHTYPE" speedFactor="0.94" vaporized=""/>
    <tripinfo id="vehicle2_60" depart="61.00" departLane="115604053_0" departPos="5.10" departSpeed="0.00" departDelay="0.00" arrival="354.00" arrivalLane="-441496282#1_0" arrivalPos="70.64" arrivalSpeed="7.16" duration="293.00" routeLength="1456.88" waitingTime="73.00" waitingCount="4" stopTime="0.00" timeLoss="128.52" rerouteNo="0" devices="tripinfo_vehicle2_60" vType="DEFAULT_VEHTYPE" speedFactor="1.01" vaporized=""/>
    <tripinfo id="vehicle1_66" depart="67.00" departLane="279952229#0_0" departPos="5.10" departSpeed="0.00" departDelay="0.00" arrival="362.00" arrivalLane="-115602933#2_0" arrivalPos="64.53" arrivalSpeed="7.60" duration="295.00" routeLength="1298.62" waitingTime="99.00" waitingCount="3" stopTime="0.00" timeLoss="132.51" rerouteNo="0" devices="tripinfo_vehicle1_66" vType="DEFAULT_VEHTYPE" speedFactor="0.97" vaporized=""/>
    <tripinfo id="vehicle2_66" depart="67.00" departLane="115604053_0" departPos="5.10" departSpeed="0.00" departDelay="0.00" arrival="368.00" arrivalLane="-441496282#1_0" arrivalPos="70.64" arrivalSpeed="7.25" duration="301.00" routeLength="1456.88" waitingTime="63.00" waitingCount="3" stopTime="0.00" timeLoss="113.29" rerouteNo="0" devices="tripinfo_vehicle2_66" vType="DEFAULT_VEHTYPE" speedFactor="0.89" vaporized=""/>
    <tripinfo id="vehicle2_72" depart="73.00" departLane="115604053_0" departPos="5.10" departSpeed="0.00" departDelay="0.00" arrival="374.00" arrivalLane="-441496282#1_0" arrivalPos="70.64" arrivalSpeed="6.04" duration="301.00" routeLength="1456.88" waitingTime="58.00" waitingCount="3" stopTime="0.00" timeLoss="110.99" rerouteNo="0" devices="tripinfo_vehicle2_72" vType="DEFAULT_VEHTYPE" speedFactor="0.87" vaporized=""/>
    <tripinfo id="vehicle2_78" depart="79.00" departLane="115604053_0" departPos="5.10" departSpeed="0.00" departDelay="0.00" arrival="376.00" arrivalLane="-441496282#1_0" arrivalPos="70.64" arrivalSpeed="7.33" duration="297.00" routeLength="1456.88" waitingTime="51.00" waitingCount="3" stopTime="0.00" timeLoss="122.08" rerouteNo="0" devices="tripinfo_vehicle2_78" vType="DEFAULT_VEHTYPE" speedFactor="0.95" vaporized=""/>
    <tripinfo id="vehicle2_108" depart="109.00" departLane="115604053_0" departPos="5.10" departSpeed="0.00" departDelay="0.00" arrival="378.00" arrivalLane="-441496282#1_0" arrivalPos="70.64" arrivalSpeed="9.70" duration="269.00" routeLength="1457.20" waitingTime="72.00" waitingCount="1" stopTime="0.00" timeLoss="127.76" rerouteNo="0" devices="tripinfo_vehicle2_108" vType="DEFAULT_VEHTYPE" speedFactor="1.18" vaporized=""/>
    <tripinfo id="vehicle2_84" depart="85.00" departLane="115604053_0" departPos="5.10" departSpeed="0.00" departDelay="0.00" arrival="401.00" arrivalLane="-441496282#1_0" arrivalPos="70.64" arrivalSpeed="7.17" duration="316.00" routeLength="1456.88" waitingTime="94.00" waitingCount="3" stopTime="0.00" timeLoss="137.38" rerouteNo="0" devices="tripinfo_vehicle2_84" vType="DEFAULT_VEHTYPE" speedFactor="0.93" vaporized=""/>
    <tripinfo id="vehicle2_90" depart="91.00" departLane="115604053_0" departPos="5.10" departSpeed="0.00" departDelay="0.00" arrival="403.00" arrivalLane="-441496282#1_0" arrivalPos="70.64" arrivalSpeed="8.91" duration="312.00" routeLength="1456.88" waitingTime="91.00" waitingCount="3" stopTime="0.00" timeLoss="166.91" rerouteNo="0" devices="tripinfo_vehicle2_90" vType="DEFAULT_VEHTYPE" speedFactor="1.15" vaporized=""/>
    <tripinfo id="vehicle2_96" depart="97.00" departLane="115604053_0" departPos="5.10" departSpeed="0.00" departDelay="0.00" arrival="405.00" arrivalLane="-441496282#1_0" arrivalPos="70.64" arrivalSpeed="8.75" duration="308.00" routeLength="1456.88" waitingTime="87.00" waitingCount="3" stopTime="0.00" timeLoss="165.16" rerouteNo="0" devices="tripinfo_vehicle2_96" vType="DEFAULT_VEHTYPE" speedFactor="1.17" vaporized=""/>
    <tripinfo id="vehicle2_120" depart="121.00" departLane="115604053_0" departPos="5.10" departSpeed="0.00" departDelay="0.00" arrival="408.00" arrivalLane="-441496282#1_0" arrivalPos="70.64" arrivalSpeed="7.90" duration="287.00" routeLength="1456.88" waitingTime="72.00" waitingCount="2" stopTime="0.00" timeLoss="113.09" rerouteNo="0" devices="tripinfo_vehicle2_120" vType="DEFAULT_VEHTYPE" speedFactor="0.96" vaporized=""/>
    <tripinfo id="vehicle1_30" depart="31.00" departLane="279952229#0_0" departPos="5.10" departSpeed="0.00" departDelay="0.00" arrival="409.00" arrivalLane="-115602933#2_0" arrivalPos="64.53" arrivalSpeed="8.51" duration="378.00" routeLength="983.52" waitingTime="204.00" waitingCount="9" stopTime="0.00" timeLoss="269.00" rerouteNo="0" devices="tripinfo_vehicle1_30" vType="DEFAULT_VEHTYPE" speedFactor="1.09" vaporized=""/>
    <tripinfo id="vehicle2_114" depart="115.00" departLane="115604053_0" departPos="5.10" departSpeed="0.00" departDelay="0.00" arrival="414.00" arrivalLane="-441496282#1_0" arrivalPos="70.64" arrivalSpeed="6.35" duration="299.00" routeLength="1457.20" waitingTime="79.00" waitingCount="2" stopTime="0.00" timeLoss="113.24" rerouteNo="0" devices="tripinfo_vehicle2_114" vType="DEFAULT_VEHTYPE" speedFactor="0.90" vaporized=""/>
    <tripinfo id="vehicle1_36" depart="37.00" departLane="279952229#0_0" departPos="5.10" departSpeed="0.00" departDelay="0.00" arrival="422.00" arrivalLane="-115602933#2_0" arrivalPos="64.53" arrivalSpeed="7.70" duration="385.00" routeLength="983.52" waitingTime="189.00" waitingCount="10" stopTime="0.00" timeLoss="271.05" rerouteNo="0" devices="tripinfo_vehicle1_36" vType="DEFAULT_VEHTYPE" speedFactor="1.05" vaporized=""/>
    <tripinfo id="vehicle1_48" depart="49.00" departLane="279952229#0_0" departPos="5.10" departSpeed="0.00" departDelay="0.00" arrival="429.00" arrivalLane="-115602933#2_0" arrivalPos="64.53" arrivalSpeed="6.10" duration="380.00" routeLength="983.52" waitingTime="178.00" waitingCount="9" stopTime="0.00" timeLoss="244.45" rerouteNo="0" devices="tripinfo_vehicle1_48" vType="DEFAULT_VEHTYPE" speedFactor="0.88" vaporized=""/>
    <tripinfo id="vehicle1_84" depart="85.00" departLane="279952229#0_0" departPos="5.10" departSpeed="0.00" departDelay="0.00" arrival="431.00" arrivalLane="-115602933#2_0" arrivalPos="64.53" arrivalSpeed="8.44" duration="346.00" routeLength="983.52" waitingTime="156.00" waitingCount="10" stopTime="0.00" timeLoss="240.38" rerouteNo="0" devices="tripinfo_vehicle1_84" vType="DEFAULT_VEHTYPE" speedFactor="1.13" vaporized=""/>
    <tripinfo id="vehicle1_102" depart="103.00" departLane="279952229#0_0" departPos="5.10" departSpeed="0.00" departDelay="0.00" arrival="440.00" arrivalLane="-115602933#2_0" arrivalPos="64.53" arrivalSpeed="7.38" duration="337.00" routeLength="983.52" waitingTime="144.00" waitingCount="9" stopTime="0.00" timeLoss="217.53" rerouteNo="0" devices="tripinfo_vehicle1_102" vType="DEFAULT_VEHTYPE" speedFactor="0.99" vaporized=""/>
    <tripinfo id="vehicle1_114" depart="115.00" departLane="279952229#0_0" departPos="5.10" departSpeed="0.00" departDelay="0.00" arrival="442.00" arrivalLane="-115602933#2_0" arrivalPos="64.53" arrivalSpeed="8.54" duration="327.00" routeLength="983.52" waitingTime="130.00" waitingCount="9" stopTime="0.00" timeLoss="218.38" rerouteNo="0" devices="tripinfo_vehicle1_114" vType="DEFAULT_VEHTYPE" speedFactor="1.10" vaporized=""/>
    <tripinfo id="vehicle1_132" depart="133.00" departLane="279952229#0_0" departPos="5.10" departSpeed="0.00" departDelay="0.00" arrival="445.00" arrivalLane="-115602933#2_0" arrivalPos="64.53" arrivalSpeed="8.42" duration="312.00" routeLength="983.52" waitingTime="110.00" waitingCount="8" stopTime="0.00" timeLoss="196.98" rerouteNo="0" devices="tripinfo_vehicle1_132" vType="DEFAULT_VEHTYPE" speedFactor="1.04" vaporized=""/>
    <tripinfo id="vehicle1_138" depart="139.00" departLane="279952229#0_0" departPos="5.10" departSpeed="0.00" departDelay="0.00" arrival="448.00" arrivalLane="-115602933#2_0" arrivalPos="64.53" arrivalSpeed="7.15" duration="309.00" routeLength="983.52" waitingTime="105.00" waitingCount="8" stopTime="0.00" timeLoss="188.74" rerouteNo="0" devices="tripinfo_vehicle1_138" vType="DEFAULT_VEHTYPE" speedFactor="1.00" vaporized=""/>
    <tripinfo id="vehicle1_108" depart="109.00" departLane="279952229#0_0" departPos="5.10" departSpeed="0.00" departDelay="0.00" arrival="450.00" arrivalLane="-115602933#2_0" arrivalPos="64.53" arrivalSpeed="7.05" duration="341.00" routeLength="1334.10" waitingTime="94.00" waitingCount="7" stopTime="0.00" timeLoss="174.68" rerouteNo="0" devices="tripinfo_vehicle1_108" vType="DEFAULT_VEHTYPE" speedFactor="0.97" vaporized=""/>
    <tripinfo id="vehicle1_126" depart="127.00" departLane="279952229#0_0" departPos="5.10" departSpeed="0.00" departDelay="0.00" arrival="452.00" arrivalLane="-115602933#2_0" arrivalPos="64.53" arrivalSpeed="8.64" duration="325.00" routeLength="1334.10" waitingTime="80.00" waitingCount="6" stopTime="0.00" timeLoss="176.57" rerouteNo="0" devices="tripinfo_vehicle1_126" vType="DEFAULT_VEHTYPE" speedFactor="1.09" vaporized=""/>
    <tripinfo id="vehicle2_138" depart="139.00" departLane="115604053_0" departPos="5.10" departSpeed="0.00" departDelay="0.00" arrival="453.00" arrivalLane="-441496282#1_0" arrivalPos="70.64" arrivalSpeed="6.70" duration="314.00" routeLength="1457.20" waitingTime="89.00" waitingCount="2" stopTime="0.00" timeLoss="128.68" rerouteNo="0" devices="tripinfo_vehicle2_138" vType="DEFAULT_VEHTYPE" speedFactor="0.90" vaporized=""/>
    <tripinfo id="vehicle1_162" depart="163.00" departLane="279952229#0_0" departPos="5.10" departSpeed="0.00" departDelay="0.00" arrival="455.00" arrivalLane="-115602933#2_0" arrivalPos="64.53" arrivalSpeed="8.15" duration="292.00" routeLength="983.52" waitingTime="86.00" waitingCount="7" stopTime="0.00" timeLoss="172.70" rerouteNo="0" devices="tripinfo_vehicle1_162" vType="DEFAULT_VEHTYPE" speedFactor="1.00" vaporized=""/>
    <tripinfo id="vehicle1_144" depart="145.00" departLane="279952229#0_0" departPos="5.10" departSpeed="0.00" departDelay="0.00" arrival="462.00" arrivalLane="-115602933#2_0" arrivalPos="64.53" arrivalSpeed="6.59" duration="317.00" routeLength="1334.10" waitingTime="54.00" waitingCount="3" stopTime="0.00" timeLoss="131.54" rerouteNo="0" devices="tripinfo_vehicle1_144" vType="DEFAULT_VEHTYPE" speedFactor="0.88" vaporized=""/>
    <tripinfo id="vehicle2_144" depart="145.00" departLane="115604053_0" departPos="5.10" departSpeed="0.00" departDelay="0.00" arrival="463.00" arrivalLane="-441496282#1_0" arrivalPos="70.64" arrivalSpeed="5.98" duration="318.00" routeLength="1457.20" waitingTime="75.00" waitingCount="3" stopTime="0.00" timeLoss="120.88" rerouteNo="0" devices="tripinfo_vehicle2_144" vType="DEFAULT_VEHTYPE" speedFactor="0.85" vaporized=""/>
    <tripinfo id="vehicle1_168" depart="169.00" departLane="279952229#0_0" departPos="5.10" departSpeed="0.00" departDelay="0.00" arrival="464.00" arrivalLane="-115602933#2_0" arrivalPos="64.53" arrivalSpeed="7.10" duration="295.00" routeLength="983.52" waitingTime="95.00" waitingCount="4" stopTime="0.00" timeLoss="162.23" rerouteNo="0" devices="tripinfo_vehicle1_168" vType="DEFAULT_VEHTYPE" speedFactor="0.90" vaporized=""/>
    <tripinfo id="vehicle1_180" depart="181.00" departLane="279952229#0_0" departPos="5.10" departSpeed="0.00" departDelay="0.00" arrival="466.00" arrivalLane="-115602933#2_0" arrivalPos="64.53" arrivalSpeed="8.47" duration="285.00" routeLength="1334.10" waitingTime="53.00" waitingCount="2" stopTime="0.00" timeLoss="134.79" rerouteNo="0" devices="tripinfo_vehicle1_180" vType="DEFAULT_VEHTYPE" speedFactor="1.08" vaporized=""/>
    <tripinfo id="vehicle1_174" depart="175.00" departLane="279952229#0_0" departPos="5.10" departSpeed="0.00" departDelay="0.00" arrival="468.00" arrivalLane="-115602933#2_0" arrivalPos="64.53" arrivalSpeed="7.37" duration="293.00" routeLength="983.52" waitingTime="113.00" waitingCount="5" stopTime="0.00" timeLoss="176.61" rerouteNo="0" devices="tripinfo_vehicle1_174" vType="DEFAULT_VEHTYPE" speedFactor="1.02" vaporized=""/>
    <tripinfo id="vehicle1_186" depart="187.00" departLane="279952229#0_0" departPos="5.10" departSpeed="0.00" departDelay="0.00" arrival="473.00" arrivalLane="-115602933#2_0" arrivalPos="64.53" arrivalSpeed="8.09" duration="286.00" routeLength="983.52" waitingTime="118.00" waitingCount="5" stopTime="0.00" timeLoss="168.33" rerouteNo="0" devices="tripinfo_vehicle1_186" vType="DEFAULT_VEHTYPE" speedFactor="1.02" vaporized=""/>
    <tripinfo id="vehicle1_72" depart="73.00" departLane="279952229#0_0" departPos="5.10" departSpeed="0.00" departDelay="0.00" arrival="489.00" arrivalLane="-115602933#2_0" arrivalPos="64.53" arrivalSpeed="5.75" duration="416.00" routeLength="1298.62" waitingTime="187.00" waitingCount="3" stopTime="0.00" timeLoss="224.68" rerouteNo="0" devices="tripinfo_vehicle1_72" vType="DEFAULT_VEHTYPE" speedFactor="0.83" vaporized=""/>
    <tripinfo id="vehicle1_192" depart="193.00" departLane="279952229#0_0" departPos="5.10" departSpeed="0.00" departDelay="0.00" arrival="491.00" arrivalLane="-115602933#2_0" arrivalPos="64.53" arrivalSpeed="7.30" duration="298.00" routeLength="983.52" waitingTime="120.00" waitingCount="6" stopTime="0.00" timeLoss="170.60" rerouteNo="0" devices="tripinfo_vehicle1_192" vType="DEFAULT_VEHTYPE" speedFactor="0.94" vaporized=""/>
    <tripinfo id="vehicle2_126" depart="127.00" departLane="115604053_0" departPos="5.10" departSpeed="0.00" departDelay="0.00" arrival="500.00" arrivalLane="-441496282#1_0" arrivalPos="70.64" arrivalSpeed="7.38" duration="373.00" routeLength="1456.88" waitingTime="152.00" waitingCount="4" stopTime="0.00" timeLoss="213.50" rerouteNo="0" devices="tripinfo_vehicle2_126" vType="DEFAULT_VEHTYPE" speedFactor="1.04" vaporized=""/>
    <tripinfo id="vehicle2_132" depart="133.00" departLane="115604053_0" departPos="5.10" departSpeed="0.00" departDelay="0.00" arrival="502.00" arrivalLane="-441496282#1_0" arrivalPos="70.64" arrivalSpeed="8.70" duration="369.00" routeLength="1456.88" waitingTime="148.00" waitingCount="4" stopTime="0.00" timeLoss="216.23" rerouteNo="0" devices="tripinfo_vehicle2_132" vType="DEFAULT_VEHTYPE" speedFactor="1.09" vaporized=""/>
    <tripinfo id="vehicle1_234" depart="235.00" departLane="279952229#0_0" departPos="5.10" departSpeed="0.00" departDelay="0.00" arrival="504.00" arrivalLane="-115602933#2_0" arrivalPos="64.53" arrivalSpeed="8.06" duration="269.00" routeLength="983.52" waitingTime="93.00" waitingCount="6" stopTime="0.00" timeLoss="150.37" rerouteNo="0" devices="tripinfo_vehicle1_234" vType="DEFAULT_VEHTYPE" speedFactor="1.01" vaporized=""/>
    <tripinfo id="vehicle2_150" depart="151.00" departLane="115604053_0" departPos="5.10" departSpeed="0.00" departDelay="0.00" arrival="506.00" arrivalLane="-441496282#1_0" arrivalPos="70.64" arrivalSpeed="9.14" duration="355.00" routeLength="1733.56" waitingTime="131.00" waitingCount="3" stopTime="0.00" timeLoss="184.21" rerouteNo="0" devices="tripinfo_vehicle2_150" vType="DEFAULT_VEHTYPE" speedFactor="1.17" vaporized=""/>
    <tripinfo id="vehicle1_240" depart="241.00" departLane="279952229#0_0" departPos="5.10" departSpeed="0.00" departDelay="0.00" arrival="507.00" arrivalLane="-115602933#2_0" arrivalPos="64.53" arrivalSpeed="7.58" duration="266.00" routeLength="983.52" waitingTime="91.00" waitingCount="6" stopTime="0.00" timeLoss="150.64" rerouteNo="0" devices="tripinfo_vehicle1_240" vType="DEFAULT_VEHTYPE" speedFactor="1.03" vaporized=""/>
    <tripinfo id="vehicle1_252" depart="253.00" departLane="279952229#0_0" departPos="5.10" departSpeed="0.00" departDelay="0.00" arrival="509.00" arrivalLane="-115602933#2_0" arrivalPos="64.53" arrivalSpeed="9.48" duration="256.00" routeLength="983.52" waitingTime="78.00" waitingCount="7" stopTime="0.00" timeLoss="151.94" rerouteNo="0" devices="tripinfo_vehicle1_252" vType="DEFAULT_VEHTYPE" speedFactor="1.15" vaporized=""/>
    <tripinfo id="vehicle1_276" depart="277.00" departLane="279952229#0_0" departPos="5.10" departSpeed="0.00" departDelay="0.00" arrival="518.00" arrivalLane="-115602933#2_0" arrivalPos="64.53" arrivalSpeed="6.48" duration="241.00" routeLength="983.52" waitingTime="60.00" waitingCount="4" stopTime="0.00" timeLoss="98.17" rerouteNo="0" devices="tripinfo_vehicle1_276" vType="DEFAULT_VEHTYPE" speedFactor="0.83" vaporized=""/>
    <tripinfo id="vehicle2_174" depart="175.00" departLane="115604053_0" departPos="5.10" departSpeed="0.00" departDelay="0.00" arrival="519.00" arrivalLane="-441496282#1_0" arrivalPos="70.64" arrivalSpeed="7.93" duration="344.00" routeLength="1457.20" waitingTime="121.00" waitingCount="3" stopTime="0.00" timeLoss="171.77" rerouteNo="0" devices="tripinfo_vehicle2_174" vType="DEFAULT_VEHTYPE" speedFactor="0.97" vaporized=""/>
    <tripinfo id="vehicle1_288" depart="289.00" departLane="279952229#0_0" departPos="5.10" departSpeed="0.00" departDelay="0.00" arrival="520.00" arrivalLane="-115602933#2_0" arrivalPos="64.53" arrivalSpeed="7.78" duration="231.00" routeLength="983.52" waitingTime="51.00" waitingCount="4" stopTime="0.00" timeLoss="113.44" rerouteNo="0" devices="tripinfo_vehicle1_288" vType="DEFAULT_VEHTYPE" speedFactor="1.01" vaporized=""/>
    <tripinfo id="vehicle1_294" depart="295.00" departLane="279952229#0_0" departPos="5.10" departSpeed="0.00" departDelay="0.00" arrival="522.00" arrivalLane="-115602933#2_0" arrivalPos="64.53" arrivalSpeed="8.12" duration="227.00" routeLength="983.52" waitingTime="51.00" waitingCount="5" stopTime="0.00" timeLoss="121.15" rerouteNo="0" devices="tripinfo_vehicle1_294" vType="DEFAULT_VEHTYPE" speedFactor="1.12" vaporized=""/>
    <tripinfo id="vehicle2_162" depart="163.00" departLane="115604053_0" departPos="5.10" departSpeed="0.00" departDelay="0.00" arrival="523.00" arrivalLane="-441496282#1_0" arrivalPos="70.64" arrivalSpeed="7.29" duration="360.00" routeLength="1733.56" waitingTime="117.00" waitingCount="3" stopTime="0.00" timeLoss="159.51" rerouteNo="0" devices="tripinfo_vehicle2_162" vType="DEFAULT_VEHTYPE" speedFactor="1.00" vaporized=""/>
    <tripinfo id="vehicle2_168" depart="169.00" departLane="115604053_0" departPos="5.10" departSpeed="0.00" departDelay="0.00" arrival="525.00" arrivalLane="-441496282#1_0" arrivalPos="70.64" arrivalSpeed="9.06" duration="356.00" routeLength="1733.56" waitingTime="117.00" waitingCount="3" stopTime="0.00" timeLoss="181.01" rerouteNo="0" devices="tripinfo_vehicle2_168" vType="DEFAULT_VEHTYPE" speedFactor="1.14" vaporized=""/>
    <tripinfo id="vehicle2_156" depart="157.00" departLane="115604053_0" departPos="5.10" departSpeed="0.00" departDelay="0.00" arrival="527.00" arrivalLane="-441496282#1_0" arrivalPos="70.64" arrivalSpeed="8.18" duration="370.00" routeLength="1456.88" waitingTime="140.00" waitingCount="5" stopTime="0.00" timeLoss="218.87" rerouteNo="0" devices="tripinfo_vehicle2_156" vType="DEFAULT_VEHTYPE" speedFactor="1.10" vaporized=""/>
    <tripinfo id="vehicle1_198" depart="199.00" departLane="279952229#0_0" departPos="5.10" departSpeed="0.00" departDelay="0.00" arrival="534.00" arrivalLane="-115602933#2_0" arrivalPos="64.53" arrivalSpeed="6.71" duration="335.00" routeLength="1334.10" waitingTime="106.00" waitingCount="6" stopTime="0.00" timeLoss="155.96" rerouteNo="0" devices="tripinfo_vehicle1_198" vType="DEFAULT_VEHTYPE" speedFactor="0.91" vaporized=""/>
    <tripinfo id="vehicle1_222" depart="223.00" departLane="279952229#0_0" departPos="5.10" departSpeed="0.00" departDelay="0.00" arrival="537.00" arrivalLane="-115602933#2_0" arrivalPos="64.53" arrivalSpeed="7.07" duration="314.00" routeLength="1334.10" waitingTime="86.00" waitingCount="5" stopTime="0.00" timeLoss="144.13" rerouteNo="0" devices="tripinfo_vehicle1_222" vType="DEFAULT_VEHTYPE" speedFactor="0.96" vaporized=""/>
    <tripinfo id="vehicle1_228" depart="229.00" departLane="279952229#0_0" departPos="5.10" departSpeed="0.00" departDelay="0.00" arrival="539.00" arrivalLane="-115602933#2_0" arrivalPos="64.53" arrivalSpeed="7.93" duration="310.00" routeLength="1334.10" waitingTime="84.00" waitingCount="5" stopTime="0.00" timeLoss="152.85" rerouteNo="0" devices="tripinfo_vehicle1_228" vType="DEFAULT_VEHTYPE" speedFactor="1.03" vaporized=""/>
    <tripinfo id="vehicle1_246" depart="247.00" departLane="279952229#0_0" departPos="5.10" departSpeed="0.00" departDelay="0.00" arrival="541.00" arrivalLane="-115602933#2_0" arrivalPos="64.53" arrivalSpeed="7.75" duration="294.00" routeLength="1334.10" waitingTime="67.00" waitingCount="5" stopTime="0.00" timeLoss="134.40" rerouteNo="0" devices="tripinfo_vehicle1_246" vType="DEFAULT_VEHTYPE" speedFactor="1.02" vaporized=""/>