<?xml version="1.0" encoding="UTF-8"?>

<!-- generated on 2024-01-24 16:37:02 by Eclipse SUMO sumo Version 1.19.0
<configuration xmlns:xsi="http://www.w3.org/2001/XMLSchema-instance" xsi:noNamespaceSchemaLocation="http://sumo.dlr.de/xsd/sumoConfiguration.xsd">

    <input>
        <net-file value="Network_and_config/csomor1.net.xml"/>
        <route-files value="Network_and_config/test.rou.xml"/>
    </input>

    <output>
        <summary-output value="Network_and_config/summary.xml"/>
        <tripinfo-output value="Network_and_config/tripinfo.xml"/>
    </output>

    <traci_server>
        <remote-port value="49232"/>
    </traci_server>

</configuration>
-->

<tripinfos xmlns:xsi="http://www.w3.org/2001/XMLSchema-instance" xsi:noNamespaceSchemaLocation="http://sumo.dlr.de/xsd/tripinfo_file.xsd">
    <tripinfo id="0" depart="1.00" departLane="279952229#0_0" departPos="5.10" departSpeed="0.00" departDelay="0.00" arrival="88.00" arrivalLane="-115602933#2_0" arrivalPos="75.56" arrivalSpeed="8.35" duration="87.00" routeLength="668.45" waitingTime="0.00" waitingCount="0" stopTime="0.00" timeLoss="10.12" rerouteNo="0" devices="tripinfo_0" vType="DEFAULT_VEHTYPE" speedFactor="1.06" vaporized=""/>
    <tripinfo id="4" depart="13.00" departLane="279952229#0_0" departPos="5.10" departSpeed="0.00" departDelay="0.00" arrival="102.00" arrivalLane="-115602933#2_0" arrivalPos="75.56" arrivalSpeed="8.32" duration="89.00" routeLength="669.33" waitingTime="0.00" waitingCount="0" stopTime="0.00" timeLoss="10.33" rerouteNo="0" devices="tripinfo_4" vType="DEFAULT_VEHTYPE" speedFactor="1.03" vaporized=""/>
    <tripinfo id="1" depart="4.00" departLane="279952229#0_0" departPos="5.10" departSpeed="0.00" departDelay="3.00" arrival="108.00" arrivalLane="-115602933#2_0" arrivalPos="75.56" arrivalSpeed="7.67" duration="104.00" routeLength="668.45" waitingTime="4.00" waitingCount="1" stopTime="0.00" timeLoss="17.15" rerouteNo="0" devices="tripinfo_1" vType="DEFAULT_VEHTYPE" speedFactor="0.94" vaporized=""/>
    <tripinfo id="2" depart="7.00" departLane="279952229#0_0" departPos="5.10" departSpeed="0.00" departDelay="0.00" arrival="110.00" arrivalLane="-115602933#2_0" arrivalPos="75.56" arrivalSpeed="7.27" duration="103.00" routeLength="668.45" waitingTime="1.00" waitingCount="1" stopTime="0.00" timeLoss="22.52" rerouteNo="0" devices="tripinfo_2" vType="DEFAULT_VEHTYPE" speedFactor="1.01" vaporized=""/>
    <tripinfo id="3" depart="10.00" departLane="279952229#0_0" departPos="5.10" departSpeed="0.00" departDelay="3.00" arrival="112.00" arrivalLane="-115602933#2_0" arrivalPos="75.56" arrivalSpeed="8.49" duration="102.00" routeLength="668.45" waitingTime="1.00" waitingCount="1" stopTime="0.00" timeLoss="26.72" rerouteNo="0" devices="tripinfo_3" vType="DEFAULT_VEHTYPE" speedFactor="1.08" vaporized=""/>
    <tripinfo id="7" depart="23.00" departLane="279952229#0_0" departPos="5.10" departSpeed="0.00" departDelay="4.00" arrival="126.00" arrivalLane="-115602933#2_0" arrivalPos="75.56" arrivalSpeed="6.51" duration="103.00" routeLength="669.33" waitingTime="0.00" waitingCount="0" stopTime="0.00" timeLoss="11.57" rerouteNo="0" devices="tripinfo_7" vType="DEFAULT_VEHTYPE" speedFactor="0.89" vaporized=""/>
    <tripinfo id="8" depart="26.00" departLane="279952229#0_0" departPos="5.10" departSpeed="0.00" departDelay="1.00" arrival="129.00" arrivalLane="-115602933#2_0" arrivalPos="75.56" arrivalSpeed="6.84" duration="103.00" routeLength="669.33" waitingTime="0.00" waitingCount="0" stopTime="0.00" timeLoss="15.89" rerouteNo="0" devices="tripinfo_8" vType="DEFAULT_VEHTYPE" speedFactor="0.94" vaporized=""/>
    <tripinfo id="13" depart="41.00" departLane="279952229#0_0" departPos="5.10" departSpeed="0.00" departDelay="4.00" arrival="130.00" arrivalLane="-115602933#2_0" arrivalPos="75.56" arrivalSpeed="8.87" duration="89.00" routeLength="669.33" waitingTime="0.00" waitingCount="0" stopTime="0.00" timeLoss="17.04" rerouteNo="0" devices="tripinfo_13" vType="DEFAULT_VEHTYPE" speedFactor="1.12" vaporized=""/>
    <tripinfo id="5" depart="16.00" departLane="279952229#0_0" departPos="5.10" departSpeed="0.00" departDelay="3.00" arrival="138.00" arrivalLane="-115602933#2_0" arrivalPos="75.56" arrivalSpeed="6.25" duration="122.00" routeLength="668.45" waitingTime="10.00" waitingCount="1" stopTime="0.00" timeLoss="24.04" rerouteNo="0" devices="tripinfo_5" vType="DEFAULT_VEHTYPE" speedFactor="0.83" vaporized=""/>
    <tripinfo id="6" depart="19.00" departLane="279952229#0_0" departPos="5.10" departSpeed="0.00" departDelay="0.00" arrival="140.00" arrivalLane="-115602933#2_0" arrivalPos="75.56" arrivalSpeed="8.38" duration="121.00" routeLength="668.45" waitingTime="9.00" waitingCount="2" stopTime="0.00" timeLoss="42.96" rerouteNo="0" devices="tripinfo_6" vType="DEFAULT_VEHTYPE" speedFactor="1.05" vaporized=""/>
    <tripinfo id="11" depart="35.00" departLane="279952229#0_0" departPos="5.10" departSpeed="0.00" departDelay="4.00" arrival="142.00" arrivalLane="-115602933#2_0" arrivalPos="75.56" arrivalSpeed="7.36" duration="107.00" routeLength="668.45" waitingTime="8.00" waitingCount="1" stopTime="0.00" timeLoss="27.94" rerouteNo="0" devices="tripinfo_11" vType="DEFAULT_VEHTYPE" speedFactor="1.03" vaporized=""/>
    <tripinfo id="15" depart="47.00" departLane="279952229#0_0" departPos="5.10" departSpeed="0.00" departDelay="4.00" arrival="146.00" arrivalLane="-115602933#2_0" arrivalPos="75.56" arrivalSpeed="7.35" duration="99.00" routeLength="669.33" waitingTime="0.00" waitingCount="0" stopTime="0.00" timeLoss="11.05" rerouteNo="0" devices="tripinfo_15" vType="DEFAULT_VEHTYPE" speedFactor="0.93" vaporized=""/>
    <tripinfo id="16" depart="50.00" departLane="279952229#0_0" departPos="5.10" departSpeed="0.00" departDelay="1.00" arrival="155.00" arrivalLane="-115602933#2_0" arrivalPos="75.56" arrivalSpeed="7.03" duration="105.00" routeLength="669.33" waitingTime="0.00" waitingCount="0" stopTime="0.00" timeLoss="12.41" rerouteNo="0" devices="tripinfo_16" vType="DEFAULT_VEHTYPE" speedFactor="0.88" vaporized=""/>
    <tripinfo id="20" depart="62.00" departLane="279952229#0_0" departPos="5.10" departSpeed="0.00" departDelay="1.00" arrival="157.00" arrivalLane="-115602933#2_0" arrivalPos="75.56" arrivalSpeed="7.94" duration="95.00" routeLength="669.33" waitingTime="0.00" waitingCount="0" stopTime="0.00" timeLoss="15.05" rerouteNo="0" devices="tripinfo_20" vType="DEFAULT_VEHTYPE" speedFactor="1.02" vaporized=""/>
    <tripinfo id="17" depart="53.00" departLane="279952229#0_0" departPos="5.10" departSpeed="0.00" departDelay="4.00" arrival="161.00" arrivalLane="-115602933#2_0" arrivalPos="75.56" arrivalSpeed="7.41" duration="108.00" routeLength="668.45" waitingTime="7.00" waitingCount="1" stopTime="0.00" timeLoss="21.26" rerouteNo="0" devices="tripinfo_17" vType="DEFAULT_VEHTYPE" speedFactor="0.94" vaporized=""/>
    <tripinfo id="18" depart="56.00" departLane="279952229#0_0" departPos="5.10" departSpeed="0.00" departDelay="1.00" arrival="163.00" arrivalLane="-115602933#2_0" arrivalPos="75.56" arrivalSpeed="6.60" duration="107.00" routeLength="668.45" waitingTime="5.00" waitingCount="1" stopTime="0.00" timeLoss="20.26" rerouteNo="0" devices="tripinfo_18" vType="DEFAULT_VEHTYPE" speedFactor="0.94" vaporized=""/>
    <tripinfo id="19" depart="59.00" departLane="279952229#0_0" departPos="5.10" departSpeed="0.00" departDelay="4.00" arrival="165.00" arrivalLane="-115602933#2_0" arrivalPos="75.56" arrivalSpeed="9.00" duration="106.00" routeLength="668.45" waitingTime="5.00" waitingCount="1" stopTime="0.00" timeLoss="35.64" rerouteNo="0" devices="tripinfo_19" vType="DEFAULT_VEHTYPE" speedFactor="1.16" vaporized=""/>
    <tripinfo id="23" depart="71.00" departLane="279952229#0_0" departPos="5.10" departSpeed="0.00" departDelay="4.00" arrival="174.00" arrivalLane="-115602933#2_0" arrivalPos="75.56" arrivalSpeed="6.99" duration="103.00" routeLength="669.33" waitingTime="0.00" waitingCount="0" stopTime="0.00" timeLoss="12.15" rerouteNo="0" devices="tripinfo_23" vType="DEFAULT_VEHTYPE" speedFactor="0.89" vaporized=""/>
    <tripinfo id="24" depart="74.00" departLane="279952229#0_0" departPos="5.10" departSpeed="0.00" departDelay="1.00" arrival="184.00" arrivalLane="-115602933#2_0" arrivalPos="75.56" arrivalSpeed="6.53" duration="110.00" routeLength="669.33" waitingTime="0.00" waitingCount="0" stopTime="0.00" timeLoss="11.92" rerouteNo="0" devices="tripinfo_24" vType="DEFAULT_VEHTYPE" speedFactor="0.83" vaporized=""/>
    <tripinfo id="25" depart="77.00" departLane="279952229#0_0" departPos="5.10" departSpeed="0.00" departDelay="4.00" arrival="187.00" arrivalLane="-115602933#2_0" arrivalPos="75.56" arrivalSpeed="6.23" duration="110.00" routeLength="669.33" waitingTime="0.00" waitingCount="0" stopTime="0.00" timeLoss="16.54" rerouteNo="0" devices="tripinfo_25" vType="DEFAULT_VEHTYPE" speedFactor="0.87" vaporized=""/>
    <tripinfo id="30" depart="92.00" departLane="279952229#0_0" departPos="5.10" departSpeed="0.00" departDelay="1.00" arrival="189.00" arrivalLane="-115602933#2_0" arrivalPos="75.56" arrivalSpeed="8.57" duration="97.00" routeLength="669.33" waitingTime="0.00" waitingCount="0" stopTime="0.00" timeLoss="27.60" rerouteNo="0" devices="tripinfo_30" vType="DEFAULT_VEHTYPE" speedFactor="1.18" vaporized=""/>
    <tripinfo id="32" depart="98.00" departLane="279952229#0_0" departPos="5.10" departSpeed="0.00" departDelay="1.00" arrival="191.00" arrivalLane="-115602933#2_0" arrivalPos="75.56" arrivalSpeed="7.39" duration="93.00" routeLength="669.33" waitingTime="0.00" waitingCount="0" stopTime="0.00" timeLoss="12.42" rerouteNo="0" devices="tripinfo_32" vType="DEFAULT_VEHTYPE" speedFactor="1.01" vaporized=""/>
    <tripinfo id="33" depart="101.00" departLane="279952229#0_0" departPos="5.10" departSpeed="0.00" departDelay="4.00" arrival="193.00" arrivalLane="-115602933#2_0" arrivalPos="75.56" arrivalSpeed="9.42" duration="92.00" routeLength="669.33" waitingTime="0.00" waitingCount="0" stopTime="0.00" timeLoss="22.33" rerouteNo="0" devices="tripinfo_33" vType="DEFAULT_VEHTYPE" speedFactor="1.17" vaporized=""/>
    <tripinfo id="21" depart="65.00" departLane="279952229#0_0" departPos="5.10" departSpeed="0.00" departDelay="4.00" arrival="196.00" arrivalLane="-115602933#2_0" arrivalPos="75.56" arrivalSpeed="8.12" duration="131.00" routeLength="668.45" waitingTime="29.00" waitingCount="2" stopTime="0.00" timeLoss="50.24" rerouteNo="0" devices="tripinfo_21" vType="DEFAULT_VEHTYPE" speedFactor="1.01" vaporized=""/>
    <tripinfo id="26" depart="80.00" departLane="279952229#0_0" departPos="5.10" departSpeed="0.00" departDelay="1.00" arrival="199.00" arrivalLane="-115602933#2_0" arrivalPos="75.56" arrivalSpeed="7.62" duration="119.00" routeLength="668.45" waitingTime="16.00" waitingCount="1" stopTime="0.00" timeLoss="30.29" rerouteNo="0" devices="tripinfo_26" vType="DEFAULT_VEHTYPE" speedFactor="0.92" vaporized=""/>
    <tripinfo id="38" depart="117.00" departLane="279952229#0_0" departPos="5.10" departSpeed="0.00" departDelay="2.00" arrival="201.00" arrivalLane="-115602933#2_0" arrivalPos="75.56" arrivalSpeed="8.75" duration="84.00" routeLength="669.33" waitingTime="0.00" waitingCount="0" stopTime="0.00" timeLoss="9.98" rerouteNo="0" devices="tripinfo_38" vType="DEFAULT_VEHTYPE" speedFactor="1.10" vaporized=""/>
    <tripinfo id="27" depart="83.00" departLane="279952229#0_0" departPos="5.10" departSpeed="0.00" departDelay="4.00" arrival="209.00" arrivalLane="-115602933#2_0" arrivalPos="75.56" arrivalSpeed="7.35" duration="126.00" routeLength="668.45" waitingTime="19.00" waitingCount="2" stopTime="0.00" timeLoss="40.11" rerouteNo="0" devices="tripinfo_27" vType="DEFAULT_VEHTYPE" speedFactor="0.95" vaporized=""/>
    <tripinfo id="29" depart="89.00" departLane="279952229#0_0" departPos="5.10" departSpeed="0.00" departDelay="4.00" arrival="212.00" arrivalLane="-115602933#2_0" arrivalPos="75.56" arrivalSpeed="7.48" duration="123.00" routeLength="668.45" waitingTime="14.00" waitingCount="2" stopTime="0.00" timeLoss="35.40" rerouteNo="0" devices="tripinfo_29" vType="DEFAULT_VEHTYPE" speedFactor="0.93" vaporized=""/>
    <tripinfo id="31" depart="95.00" departLane="279952229#0_0" departPos="5.10" departSpeed="0.00" departDelay="4.00" arrival="214.00" arrivalLane="-115602933#2_0" arrivalPos="75.56" arrivalSpeed="8.90" duration="119.00" routeLength="668.45" waitingTime="13.00" waitingCount="2" stopTime="0.00" timeLoss="48.57" rerouteNo="0" devices="tripinfo_31" vType="DEFAULT_VEHTYPE" speedFactor="1.15" vaporized=""/>
    <tripinfo id="39" depart="120.00" departLane="279952229#0_0" departPos="5.10" departSpeed="0.00" departDelay="5.00" arrival="221.00" arrivalLane="-115602933#2_0" arrivalPos="75.56" arrivalSpeed="6.31" duration="101.00" routeLength="669.33" waitingTime="0.00" waitingCount="0" stopTime="0.00" timeLoss="10.97" rerouteNo="0" devices="tripinfo_39" vType="DEFAULT_VEHTYPE" speedFactor="0.90" vaporized=""/>
    <tripinfo id="42" depart="129.00" departLane="279952229#0_0" departPos="5.10" departSpeed="0.00" departDelay="2.00" arrival="223.00" arrivalLane="-115602933#2_0" arrivalPos="75.56" arrivalSpeed="7.91" duration="94.00" routeLength="669.33" waitingTime="0.00" waitingCount="0" stopTime="0.00" timeLoss="19.40" rerouteNo="0" devices="tripinfo_42" vType="DEFAULT_VEHTYPE" speedFactor="1.09" vaporized=""/>
    <tripinfo id="43" depart="132.00" departLane="279952229#0_0" departPos="5.10" departSpeed="0.00" departDelay="5.00" arrival="225.00" arrivalLane="-115602933#2_0" arrivalPos="75.56" arrivalSpeed="7.59" duration="93.00" routeLength="669.33" waitingTime="0.00" waitingCount="0" stopTime="0.00" timeLoss="14.55" rerouteNo="0" devices="tripinfo_43" vType="DEFAULT_VEHTYPE" speedFactor="1.04" vaporized=""/>
    <tripinfo id="9" depart="29.00" departLane="279952229#0_0" departPos="5.10" departSpeed="0.00" departDelay="4.00" arrival="234.00" arrivalLane="-115602933#2_0" arrivalPos="75.56" arrivalSpeed="6.47" duration="205.00" routeLength="1200.24" waitingTime="12.00" waitingCount="1" stopTime="0.00" timeLoss="35.29" rerouteNo="0" devices="tripinfo_9" vType="DEFAULT_VEHTYPE" speedFactor="0.86" vaporized=""/>
    <tripinfo id="46" depart="141.00" departLane="279952229#0_0" departPos="5.10" departSpeed="0.00" departDelay="2.00" arrival="236.00" arrivalLane="-115602933#2_0" arrivalPos="75.56" arrivalSpeed="7.02" duration="95.00" routeLength="669.33" waitingTime="0.00" waitingCount="0" stopTime="0.00" timeLoss="13.40" rerouteNo="0" devices="tripinfo_46" vType="DEFAULT_VEHTYPE" speedFactor="1.00" vaporized=""/>
    <tripinfo id="10" depart="32.00" departLane="279952229#0_0" departPos="5.10" departSpeed="0.00" departDelay="1.00" arrival="238.00" arrivalLane="-115602933#2_0" arrivalPos="75.56" arrivalSpeed="8.05" duration="206.00" routeLength="1200.24" waitingTime="16.00" waitingCount="2" stopTime="0.00" timeLoss="72.74" rerouteNo="0" devices="tripinfo_10" vType="DEFAULT_VEHTYPE" speedFactor="1.09" vaporized=""/>
    <tripinfo id="47" depart="144.00" departLane="279952229#0_0" departPos="5.10" departSpeed="0.00" departDelay="5.00" arrival="248.00" arrivalLane="-115602933#2_0" arrivalPos="75.56" arrivalSpeed="6.56" duration="104.00" routeLength="669.33" waitingTime="0.00" waitingCount="0" stopTime="0.00" timeLoss="13.32" rerouteNo="0" devices="tripinfo_47" vType="DEFAULT_VEHTYPE" speedFactor="0.90" vaporized=""/>
    <tripinfo id="51" depart="156.00" departLane="279952229#0_0" departPos="5.10" departSpeed="0.00" departDelay="5.00" arrival="250.00" arrivalLane="-115602933#2_0" arrivalPos="75.56" arrivalSpeed="9.17" duration="94.00" routeLength="669.33" waitingTime="0.00" waitingCount="0" stopTime="0.00" timeLoss="23.99" rerouteNo="0" devices="tripinfo_51" vType="DEFAULT_VEHTYPE" speedFactor="1.17" vaporized=""/>
    <tripinfo id="53" depart="162.00" departLane="279952229#0_0" departPos="5.10" departSpeed="0.00" departDelay="5.00" arrival="252.00" arrivalLane="-115602933#2_0" arrivalPos="75.56" arrivalSpeed="9.01" duration="90.00" routeLength="669.33" waitingTime="0.00" waitingCount="0" stopTime="0.00" timeLoss="15.30" rerouteNo="0" devices="tripinfo_53" vType="DEFAULT_VEHTYPE" speedFactor="1.10" vaporized=""/>
    <tripinfo id="35" depart="107.00" departLane="279952229#0_0" departPos="5.10" departSpeed="0.00" departDelay="4.00" arrival="254.00" arrivalLane="-115602933#2_0" arrivalPos="75.56" arrivalSpeed="8.42" duration="147.00" routeLength="668.45" waitingTime="38.00" waitingCount="3" stopTime="0.00" timeLoss="67.35" rerouteNo="0" devices="tripinfo_35" vType="DEFAULT_VEHTYPE" speedFactor="1.02" vaporized=""/>
    <tripinfo id="54" depart="165.00" departLane="279952229#0_0" departPos="5.10" departSpeed="0.00" departDelay="2.00" arrival="257.00" arrivalLane="-115602933#2_0" arrivalPos="75.56" arrivalSpeed="7.30" duration="92.00" routeLength="669.33" waitingTime="0.00" waitingCount="0" stopTime="0.00" timeLoss="10.56" rerouteNo="0" devices="tripinfo_54" vType="DEFAULT_VEHTYPE" speedFactor="1.00" vaporized=""/>
    <tripinfo id="12" depart="38.00" departLane="279952229#0_0" departPos="5.10" departSpeed="0.00" departDelay="1.00" arrival="259.00" arrivalLane="-115602933#2_0" arrivalPos="75.56" arrivalSpeed="8.42" duration="221.00" routeLength="1200.24" waitingTime="30.00" waitingCount="3" stopTime="0.00" timeLoss="82.10" rerouteNo="0" devices="tripinfo_12" vType="DEFAULT_VEHTYPE" speedFactor="1.05" vaporized=""/>
    <tripinfo id="14" depart="44.00" departLane="279952229#0_0" departPos="5.10" departSpeed="0.00" departDelay="1.00" arrival="263.00" arrivalLane="-115602933#2_0" arrivalPos="75.56" arrivalSpeed="7.83" duration="219.00" routeLength="1200.24" waitingTime="29.00" waitingCount="3" stopTime="0.00" timeLoss="72.18" rerouteNo="0" devices="tripinfo_14" vType="DEFAULT_VEHTYPE" speedFactor="0.99" vaporized=""/>
    <tripinfo id="22" depart="68.00" departLane="279952229#0_0" departPos="5.10" departSpeed="0.00" departDelay="1.00" arrival="266.00" arrivalLane="-115602933#2_0" arrivalPos="75.56" arrivalSpeed="6.89" duration="198.00" routeLength="1200.24" waitingTime="18.00" waitingCount="2" stopTime="0.00" timeLoss="49.24" rerouteNo="0" devices="tripinfo_22" vType="DEFAULT_VEHTYPE" speedFactor="0.97" vaporized=""/>
    <tripinfo id="28" depart="86.00" departLane="279952229#0_0" departPos="5.10" departSpeed="0.00" departDelay="1.00" arrival="268.00" arrivalLane="-115602933#2_0" arrivalPos="75.56" arrivalSpeed="8.96" duration="182.00" routeLength="1200.24" waitingTime="17.00" waitingCount="2" stopTime="0.00" timeLoss="53.79" rerouteNo="0" devices="tripinfo_28" vType="DEFAULT_VEHTYPE" speedFactor="1.13" vaporized=""/>
    <tripinfo id="34" depart="104.00" departLane="279952229#0_0" departPos="5.10" departSpeed="0.00" departDelay="1.00" arrival="271.00" arrivalLane="-115602933#2_0" arrivalPos="75.56" arrivalSpeed="7.40" duration="167.00" routeLength="1200.24" waitingTime="0.00" waitingCount="0" stopTime="0.00" timeLoss="20.73" rerouteNo="0" devices="tripinfo_34" vType="DEFAULT_VEHTYPE" speedFactor="0.99" vaporized=""/>
    <tripinfo id="36" depart="111.00" departLane="279952229#0_0" departPos="5.10" departSpeed="0.00" departDelay="2.00" arrival="275.00" arrivalLane="-115602933#2_0" arrivalPos="75.56" arrivalSpeed="7.72" duration="164.00" routeLength="1200.24" waitingTime="0.00" waitingCount="0" stopTime="0.00" timeLoss="15.20" rerouteNo="0" devices="tripinfo_36" vType="DEFAULT_VEHTYPE" speedFactor="0.97" vaporized=""/>
    <tripinfo id="40" depart="123.00" departLane="279952229#0_0" departPos="5.10" departSpeed="0.00" departDelay="2.00" arrival="280.00" arrivalLane="-115602933#2_0" arrivalPos="75.56" arrivalSpeed="8.17" duration="157.00" routeLength="1200.24" waitingTime="0.00" waitingCount="0" stopTime="0.00" timeLoss="15.77" rerouteNo="0" devices="tripinfo_40" vType="DEFAULT_VEHTYPE" speedFactor="1.03" vaporized=""/>
    <tripinfo id="37" depart="114.00" departLane="279952229#0_0" departPos="5.10" departSpeed="0.00" departDelay="5.00" arrival="282.00" arrivalLane="-115602933#2_0" arrivalPos="75.56" arrivalSpeed="9.16" duration="168.00" routeLength="668.45" waitingTime="63.00" waitingCount="4" stopTime="0.00" timeLoss="99.10" rerouteNo="0" devices="tripinfo_37" vType="DEFAULT_VEHTYPE" speedFactor="1.18" vaporized=""/>
    <tripinfo id="44" depart="135.00" departLane="279952229#0_0" departPos="5.10" departSpeed="0.00" departDelay="2.00" arrival="286.00" arrivalLane="-115602933#2_0" arrivalPos="75.56" arrivalSpeed="8.52" duration="151.00" routeLength="668.45" waitingTime="56.00" waitingCount="2" stopTime="0.00" timeLoss="72.75" rerouteNo="0" devices="tripinfo_44" vType="DEFAULT_VEHTYPE" speedFactor="1.04" vaporized=""/>
    <tripinfo id="55" depart="168.00" departLane="279952229#0_0" departPos="5.10" departSpeed="0.00" departDelay="5.00" arrival="289.00" arrivalLane="-115602933#2_0" arrivalPos="75.56" arrivalSpeed="8.02" duration="121.00" routeLength="668.45" waitingTime="25.00" waitingCount="1" stopTime="0.00" timeLoss="39.01" rerouteNo="0" devices="tripinfo_55" vType="DEFAULT_VEHTYPE" speedFactor="1.00" vaporized=""/>
    <tripinfo id="56" depart="171.00" departLane="279952229#0_0" departPos="5.10" departSpeed="0.00" departDelay="2.00" arrival="295.00" arrivalLane="-115602933#2_0" arrivalPos="75.56" arrivalSpeed="7.38" duration="124.00" routeLength="668.45" waitingTime="17.00" waitingCount="1" stopTime="0.00" timeLoss="33.41" rerouteNo="0" devices="tripinfo_56" vType="DEFAULT_VEHTYPE" speedFactor="0.90" vaporized=""/>
    <tripinfo id="65" depart="198.00" departLane="279952229#0_0" departPos="5.10" departSpeed="0.00" departDelay="5.00" arrival="302.00" arrivalLane="-115602933#2_0" arrivalPos="75.56" arrivalSpeed="7.15" duration="104.00" routeLength="668.45" waitingTime="0.00" waitingCount="0" stopTime="0.00" timeLoss="12.04" rerouteNo="0" devices="tripinfo_65" vType="DEFAULT_VEHTYPE" speedFactor="0.88" vaporized=""/>
    <tripinfo id="70" depart="213.00" departLane="279952229#0_0" departPos="5.10" departSpeed="0.00" departDelay="2.00" arrival="304.00" arrivalLane="-115602933#2_0" arrivalPos="75.56" arrivalSpeed="7.29" duration="91.00" routeLength="669.33" waitingTime="0.00" waitingCount="0" stopTime="0.00" timeLoss="11.89" rerouteNo="0" devices="tripinfo_70" vType="DEFAULT_VEHTYPE" speedFactor="1.02" vaporized=""/>
    <tripinfo id="41" depart="126.00" departLane="279952229#0_0" departPos="5.10" departSpeed="0.00" departDelay="5.00" arrival="307.00" arrivalLane="-115602933#2_0" arrivalPos="75.56" arrivalSpeed="7.38" duration="181.00" routeLength="1200.24" waitingTime="9.00" waitingCount="1" stopTime="0.00" timeLoss="29.76" rerouteNo="0" devices="tripinfo_41" vType="DEFAULT_VEHTYPE" speedFactor="0.96" vaporized=""/>
    <tripinfo id="45" depart="138.00" departLane="279952229#0_0" departPos="5.10" departSpeed="0.00" departDelay="5.00" arrival="309.00" arrivalLane="-115602933#2_0" arrivalPos="75.56" arrivalSpeed="7.84" duration="171.00" routeLength="1200.24" waitingTime="9.00" waitingCount="1" stopTime="0.00" timeLoss="37.64" rerouteNo="0" devices="tripinfo_45" vType="DEFAULT_VEHTYPE" speedFactor="1.09" vaporized=""/>
    <tripinfo id="73" depart="222.00" departLane="279952229#0_0" departPos="5.10" departSpeed="0.00" departDelay="5.00" arrival="311.00" arrivalLane="-115602933#2_0" arrivalPos="75.56" arrivalSpeed="8.79" duration="89.00" routeLength="669.33" waitingTime="0.00" waitingCount="0" stopTime="0.00" timeLoss="12.11" rerouteNo="0" devices="tripinfo_73" vType="DEFAULT_VEHTYPE" speedFactor="1.06" vaporized=""/>
    <tripinfo id="74" depart="225.00" departLane="279952229#0_0" departPos="5.10" departSpeed="0.00" departDelay="2.00" arrival="322.00" arrivalLane="-115602933#2_0" arrivalPos="75.56" arrivalSpeed="6.99" duration="97.00" routeLength="669.33" waitingTime="0.00" waitingCount="0" stopTime="0.00" timeLoss="11.40" rerouteNo="0" devices="tripinfo_74" vType="DEFAULT_VEHTYPE" speedFactor="0.96" vaporized=""/>
    <tripinfo id="78" depart="237.00" departLane="279952229#0_0" departPos="5.10" departSpeed="0.00" departDelay="2.00" arrival="327.00" arrivalLane="-115602933#2_0" arrivalPos="75.56" arrivalSpeed="8.12" duration="90.00" routeLength="669.33" waitingTime="0.00" waitingCount="0" stopTime="0.00" timeLoss="9.49" rerouteNo="0" devices="tripinfo_78" vType="DEFAULT_VEHTYPE" speedFactor="1.01" vaporized=""/>
    <tripinfo id="80" depart="243.00" departLane="279952229#0_0" departPos="5.10" departSpeed="0.00" departDelay="2.00" arrival="331.00" arrivalLane="-115602933#2_0" arrivalPos="75.56" arrivalSpeed="8.51" duration="88.00" routeLength="669.33" waitingTime="0.00" waitingCount="0" stopTime="0.00" timeLoss="9.60" rerouteNo="0" devices="tripinfo_80" vType="DEFAULT_VEHTYPE" speedFactor="1.03" vaporized=""/>
    <tripinfo id="81" depart="246.00" departLane="279952229#0_0" departPos="5.10" departSpeed="0.00" departDelay="5.00" arrival="337.00" arrivalLane="-115602933#2_0" arrivalPos="75.56" arrivalSpeed="7.97" duration="91.00" routeLength="669.33" waitingTime="0.00" waitingCount="0" stopTime="0.00" timeLoss="9.42" rerouteNo="0" devices="tripinfo_81" vType="DEFAULT_VEHTYPE" speedFactor="1.00" vaporized=""/>
    <tripinfo id="84" depart="255.00" departLane="279952229#0_0" departPos="5.10" departSpeed="0.00" departDelay="2.00" arrival="339.00" arrivalLane="-115602933#2_0" arrivalPos="75.56" arrivalSpeed="9.14" duration="84.00" routeLength="669.33" waitingTime="0.00" waitingCount="0" stopTime="0.00" timeLoss="12.60" rerouteNo="0" devices="tripinfo_84" vType="DEFAULT_VEHTYPE" speedFactor="1.15" vaporized=""/>
    <tripinfo id="66" depart="201.00" departLane="279952229#0_0" departPos="5.10" departSpeed="0.00" departDelay="2.00" arrival="345.00" arrivalLane="-115602933#2_0" arrivalPos="75.56" arrivalSpeed="6.42" duration="144.00" routeLength="668.45" waitingTime="39.00" waitingCount="1" stopTime="0.00" timeLoss="54.64" rerouteNo="0" devices="tripinfo_66" vType="DEFAULT_VEHTYPE" speedFactor="0.91" vaporized=""/>
    <tripinfo id="48" depart="147.00" departLane="279952229#0_0" departPos="5.10" departSpeed="0.00" departDelay="2.00" arrival="351.00" arrivalLane="-115602933#2_0" arrivalPos="75.56" arrivalSpeed="7.10" duration="204.00" routeLength="1200.24" waitingTime="16.00" waitingCount="1" stopTime="0.00" timeLoss="38.22" rerouteNo="0" devices="tripinfo_48" vType="DEFAULT_VEHTYPE" speedFactor="0.88" vaporized=""/>
    <tripinfo id="49" depart="150.00" departLane="279952229#0_0" departPos="5.10" departSpeed="0.00" departDelay="5.00" arrival="355.00" arrivalLane="-115602933#2_0" arrivalPos="75.56" arrivalSpeed="6.29" duration="205.00" routeLength="1200.24" waitingTime="11.00" waitingCount="1" stopTime="0.00" timeLoss="34.40" rerouteNo="0" devices="tripinfo_49" vType="DEFAULT_VEHTYPE" speedFactor="0.85" vaporized=""/>
    <tripinfo id="86" depart="262.00" departLane="279952229#0_0" departPos="5.10" departSpeed="0.00" departDelay="3.00" arrival="357.00" arrivalLane="-115602933#2_0" arrivalPos="75.56" arrivalSpeed="7.22" duration="95.00" routeLength="669.33" waitingTime="0.00" waitingCount="0" stopTime="0.00" timeLoss="13.72" rerouteNo="0" devices="tripinfo_86" vType="DEFAULT_VEHTYPE" speedFactor="1.00" vaporized=""/>
    <tripinfo id="50" depart="153.00" departLane="279952229#0_0" departPos="5.10" departSpeed="0.00" departDelay="2.00" arrival="365.00" arrivalLane="-115602933#2_0" arrivalPos="75.56" arrivalSpeed="6.42" duration="212.00" routeLength="1200.24" waitingTime="14.00" waitingCount="2" stopTime="0.00" timeLoss="41.80" rerouteNo="0" devices="tripinfo_50" vType="DEFAULT_VEHTYPE" speedFactor="0.85" vaporized=""/>
    <tripinfo id="52" depart="159.00" departLane="279952229#0_0" departPos="5.10" departSpeed="0.00" departDelay="2.00" arrival="367.00" arrivalLane="-115602933#2_0" arrivalPos="75.56" arrivalSpeed="8.29" duration="208.00" routeLength="1200.24" waitingTime="13.00" waitingCount="2" stopTime="0.00" timeLoss="64.84" rerouteNo="0" devices="tripinfo_52" vType="DEFAULT_VEHTYPE" speedFactor="1.02" vaporized=""/>
    <tripinfo id="57" depart="174.00" departLane="279952229#0_0" departPos="5.10" departSpeed="0.00" departDelay="5.00" arrival="369.00" arrivalLane="-115602933#2_0" arrivalPos="75.56" arrivalSpeed="9.44" duration="195.00" routeLength="1200.24" waitingTime="11.00" waitingCount="2" stopTime="0.00" timeLoss="67.26" rerouteNo="0" devices="tripinfo_57" vType="DEFAULT_VEHTYPE" speedFactor="1.14" vaporized=""/>
    <tripinfo id="58" depart="177.00" departLane="279952229#0_0" departPos="5.10" departSpeed="0.00" departDelay="2.00" arrival="371.00" arrivalLane="-115602933#2_0" arrivalPos="75.56" arrivalSpeed="8.06" duration="194.00" routeLength="1200.24" waitingTime="8.00" waitingCount="2" stopTime="0.00" timeLoss="52.03" rerouteNo="0" devices="tripinfo_58" vType="DEFAULT_VEHTYPE" speedFactor="1.02" vaporized=""/>
    <tripinfo id="59" depart="180.00" departLane="279952229#0_0" departPos="5.10" departSpeed="0.00" departDelay="5.00" arrival="373.00" arrivalLane="-115602933#2_0" arrivalPos="75.56" arrivalSpeed="7.94" duration="193.00" routeLength="1200.24" waitingTime="9.00" waitingCount="2" stopTime="0.00" timeLoss="43.54" rerouteNo="0" devices="tripinfo_59" vType="DEFAULT_VEHTYPE" speedFactor="0.97" vaporized=""/>
    <tripinfo id="60" depart="183.00" departLane="279952229#0_0" departPos="5.10" departSpeed="0.00" departDelay="2.00" arrival="375.00" arrivalLane="-115602933#2_0" arrivalPos="75.56" arrivalSpeed="8.65" duration="192.00" routeLength="1200.24" waitingTime="9.00" waitingCount="2" stopTime="0.00" timeLoss="57.83" rerouteNo="0" devices="tripinfo_60" vType="DEFAULT_VEHTYPE" speedFactor="1.08" vaporized=""/>