<?xml version="1.0" encoding="UTF-8"?>

<!-- generated on 2024-01-23 10:31:14 by Eclipse SUMO sumo Version 1.19.0
<configuration xmlns:xsi="http://www.w3.org/2001/XMLSchema-instance" xsi:noNamespaceSchemaLocation="http://sumo.dlr.de/xsd/sumoConfiguration.xsd">

    <input>
        <net-file value="Network_and_config/csomor1.net.xml"/>
    </input>

    <output>
        <summary-output value="Network_and_config/summary.xml"/>
        <tripinfo-output value="Network_and_config/tripinfo.xml"/>
    </output>

    <traci_server>
        <remote-port value="64824"/>
    </traci_server>

</configuration>
-->

<tripinfos xmlns:xsi="http://www.w3.org/2001/XMLSchema-instance" xsi:noNamespaceSchemaLocation="http://sumo.dlr.de/xsd/tripinfo_file.xsd">
    <tripinfo id="0" depart="1.00" departLane="279952229#0_0" departPos="5.10" departSpeed="0.00" departDelay="0.00" arrival="197.00" arrivalLane="-115602933#2_0" arrivalPos="75.56" arrivalSpeed="8.35" duration="196.00" routeLength="1543.60" waitingTime="0.00" waitingCount="0" stopTime="0.00" timeLoss="22.21" rerouteNo="0" devices="tripinfo_0" vType="DEFAULT_VEHTYPE" speedFactor="1.06" vaporized=""/>
    <tripinfo id="4" depart="13.00" departLane="279952229#0_0" departPos="5.10" departSpeed="0.00" departDelay="0.00" arrival="221.00" arrivalLane="-115602933#2_0" arrivalPos="75.56" arrivalSpeed="8.27" duration="208.00" routeLength="1543.60" waitingTime="4.00" waitingCount="1" stopTime="0.00" timeLoss="29.74" rerouteNo="0" devices="tripinfo_4" vType="DEFAULT_VEHTYPE" speedFactor="1.03" vaporized=""/>
    <tripinfo id="6" depart="19.00" departLane="279952229#0_0" departPos="5.10" departSpeed="0.00" departDelay="0.00" arrival="224.00" arrivalLane="-115602933#2_0" arrivalPos="75.56" arrivalSpeed="8.62" duration="205.00" routeLength="1543.60" waitingTime="1.00" waitingCount="1" stopTime="0.00" timeLoss="29.17" rerouteNo="0" devices="tripinfo_6" vType="DEFAULT_VEHTYPE" speedFactor="1.05" vaporized=""/>
    <tripinfo id="8" depart="25.00" departLane="279952229#0_0" departPos="5.10" departSpeed="0.00" departDelay="0.00" arrival="251.00" arrivalLane="-115602933#2_0" arrivalPos="75.56" arrivalSpeed="7.08" duration="226.00" routeLength="1543.60" waitingTime="1.00" waitingCount="1" stopTime="0.00" timeLoss="29.56" rerouteNo="0" devices="tripinfo_8" vType="DEFAULT_VEHTYPE" speedFactor="0.94" vaporized=""/>
    <tripinfo id="10" depart="31.00" departLane="279952229#0_0" departPos="5.10" departSpeed="0.00" departDelay="0.00" arrival="253.00" arrivalLane="-115602933#2_0" arrivalPos="75.56" arrivalSpeed="8.47" duration="222.00" routeLength="1543.60" waitingTime="0.00" waitingCount="0" stopTime="0.00" timeLoss="53.24" rerouteNo="0" devices="tripinfo_10" vType="DEFAULT_VEHTYPE" speedFactor="1.09" vaporized=""/>
    <tripinfo id="12" depart="37.00" departLane="279952229#0_0" departPos="5.10" departSpeed="0.00" departDelay="0.00" arrival="255.00" arrivalLane="-115602933#2_0" arrivalPos="75.56" arrivalSpeed="8.60" duration="218.00" routeLength="1543.60" waitingTime="0.00" waitingCount="0" stopTime="0.00" timeLoss="41.58" rerouteNo="0" devices="tripinfo_12" vType="DEFAULT_VEHTYPE" speedFactor="1.05" vaporized=""/>
    <tripinfo id="16" depart="49.00" departLane="279952229#0_0" departPos="5.10" departSpeed="0.00" departDelay="0.00" arrival="289.00" arrivalLane="-115602933#2_0" arrivalPos="75.56" arrivalSpeed="6.35" duration="240.00" routeLength="1543.60" waitingTime="2.00" waitingCount="1" stopTime="0.00" timeLoss="31.69" rerouteNo="0" devices="tripinfo_16" vType="DEFAULT_VEHTYPE" speedFactor="0.88" vaporized=""/>
    <tripinfo id="18" depart="56.00" departLane="279952229#0_0" departPos="5.10" departSpeed="0.00" departDelay="1.00" arrival="292.00" arrivalLane="-115602933#2_0" arrivalPos="75.56" arrivalSpeed="7.07" duration="236.00" routeLength="1543.60" waitingTime="2.00" waitingCount="1" stopTime="0.00" timeLoss="39.71" rerouteNo="0" devices="tripinfo_18" vType="DEFAULT_VEHTYPE" speedFactor="0.94" vaporized=""/>
    <tripinfo id="26" depart="80.00" departLane="279952229#0_0" departPos="5.10" departSpeed="0.00" departDelay="1.00" arrival="305.00" arrivalLane="-115602933#2_0" arrivalPos="75.56" arrivalSpeed="6.93" duration="225.00" routeLength="1543.60" waitingTime="0.00" waitingCount="0" stopTime="0.00" timeLoss="25.29" rerouteNo="0" devices="tripinfo_26" vType="DEFAULT_VEHTYPE" speedFactor="0.92" vaporized=""/>
    <tripinfo id="28" depart="85.00" departLane="279952229#0_0" departPos="5.10" departSpeed="0.00" departDelay="0.00" arrival="307.00" arrivalLane="-115602933#2_0" arrivalPos="75.56" arrivalSpeed="9.10" duration="222.00" routeLength="1543.60" waitingTime="0.00" waitingCount="0" stopTime="0.00" timeLoss="59.38" rerouteNo="0" devices="tripinfo_28" vType="DEFAULT_VEHTYPE" speedFactor="1.13" vaporized=""/>
    <tripinfo id="32" depart="97.00" departLane="279952229#0_0" departPos="5.10" departSpeed="0.00" departDelay="0.00" arrival="310.00" arrivalLane="-115602933#2_0" arrivalPos="75.56" arrivalSpeed="7.60" duration="213.00" routeLength="1543.60" waitingTime="0.00" waitingCount="0" stopTime="0.00" timeLoss="29.73" rerouteNo="0" devices="tripinfo_32" vType="DEFAULT_VEHTYPE" speedFactor="1.01" vaporized=""/>
    <tripinfo id="36" depart="109.00" departLane="279952229#0_0" departPos="5.10" departSpeed="0.00" departDelay="0.00" arrival="327.00" arrivalLane="-115602933#2_0" arrivalPos="75.56" arrivalSpeed="7.30" duration="218.00" routeLength="1543.60" waitingTime="1.00" waitingCount="1" stopTime="0.00" timeLoss="29.05" rerouteNo="0" devices="tripinfo_36" vType="DEFAULT_VEHTYPE" speedFactor="0.97" vaporized=""/>
    <tripinfo id="42" depart="128.00" departLane="279952229#0_0" departPos="5.10" departSpeed="0.00" departDelay="1.00" arrival="329.00" arrivalLane="-115602933#2_0" arrivalPos="75.56" arrivalSpeed="8.81" duration="201.00" routeLength="1543.60" waitingTime="0.00" waitingCount="0" stopTime="0.00" timeLoss="32.51" rerouteNo="0" devices="tripinfo_42" vType="DEFAULT_VEHTYPE" speedFactor="1.09" vaporized=""/>
    <tripinfo id="46" depart="139.00" departLane="279952229#0_0" departPos="5.10" departSpeed="0.00" departDelay="0.00" arrival="347.00" arrivalLane="-115602933#2_0" arrivalPos="75.56" arrivalSpeed="7.24" duration="208.00" routeLength="1543.60" waitingTime="0.00" waitingCount="0" stopTime="0.00" timeLoss="23.41" rerouteNo="0" devices="tripinfo_46" vType="DEFAULT_VEHTYPE" speedFactor="1.00" vaporized=""/>
    <tripinfo id="48" depart="145.00" departLane="279952229#0_0" departPos="5.10" departSpeed="0.00" departDelay="0.00" arrival="380.00" arrivalLane="-115602933#2_0" arrivalPos="75.56" arrivalSpeed="6.49" duration="235.00" routeLength="1543.60" waitingTime="0.00" waitingCount="0" stopTime="0.00" timeLoss="25.97" rerouteNo="0" devices="tripinfo_48" vType="DEFAULT_VEHTYPE" speedFactor="0.88" vaporized=""/>
    <tripinfo id="54" depart="163.00" departLane="279952229#0_0" departPos="5.10" departSpeed="0.00" departDelay="0.00" arrival="382.00" arrivalLane="-115602933#2_0" arrivalPos="75.56" arrivalSpeed="7.59" duration="219.00" routeLength="1543.60" waitingTime="0.00" waitingCount="0" stopTime="0.00" timeLoss="36.04" rerouteNo="0" devices="tripinfo_54" vType="DEFAULT_VEHTYPE" speedFactor="1.00" vaporized=""/>
    <tripinfo id="2" depart="7.00" departLane="279952229#0_0" departPos="5.10" departSpeed="0.00" departDelay="0.00" arrival="404.00" arrivalLane="-115602933#2_0" arrivalPos="75.56" arrivalSpeed="3.60" duration="397.00" routeLength="2792.90" waitingTime="16.00" waitingCount="2" stopTime="0.00" timeLoss="62.08" rerouteNo="0" devices="tripinfo_2" vType="DEFAULT_VEHTYPE" speedFactor="1.01" vaporized=""/>
    <tripinfo id="56" depart="170.00" departLane="279952229#0_0" departPos="5.10" departSpeed="0.00" departDelay="1.00" arrival="426.00" arrivalLane="-115602933#2_0" arrivalPos="75.56" arrivalSpeed="6.70" duration="256.00" routeLength="1543.60" waitingTime="20.00" waitingCount="2" stopTime="0.00" timeLoss="52.14" rerouteNo="0" devices="tripinfo_56" vType="DEFAULT_VEHTYPE" speedFactor="0.90" vaporized=""/>
    <tripinfo id="3" depart="7.00" departLane="115604053_0" departPos="5.10" departSpeed="0.00" departDelay="0.00" arrival="429.00" arrivalLane="-441496282#1_0" arrivalPos="70.64" arrivalSpeed="8.75" duration="422.00" routeLength="3393.39" waitingTime="16.00" waitingCount="2" stopTime="0.00" timeLoss="77.64" rerouteNo="0" devices="tripinfo_3" vType="DEFAULT_VEHTYPE" speedFactor="1.08" vaporized=""/>
    <tripinfo id="58" depart="175.00" departLane="279952229#0_0" departPos="5.10" departSpeed="0.00" departDelay="0.00" arrival="458.00" arrivalLane="-115602933#2_0" arrivalPos="75.56" arrivalSpeed="7.93" duration="283.00" routeLength="1543.60" waitingTime="43.00" waitingCount="3" stopTime="0.00" timeLoss="102.61" rerouteNo="0" devices="tripinfo_58" vType="DEFAULT_VEHTYPE" speedFactor="1.02" vaporized=""/>
    <tripinfo id="60" depart="181.00" departLane="279952229#0_0" departPos="5.10" departSpeed="0.00" departDelay="0.00" arrival="460.00" arrivalLane="-115602933#2_0" arrivalPos="75.56" arrivalSpeed="8.28" duration="279.00" routeLength="1543.60" waitingTime="41.00" waitingCount="3" stopTime="0.00" timeLoss="108.47" rerouteNo="0" devices="tripinfo_60" vType="DEFAULT_VEHTYPE" speedFactor="1.08" vaporized=""/>
    <tripinfo id="62" depart="187.00" departLane="279952229#0_0" departPos="5.10" departSpeed="0.00" departDelay="0.00" arrival="469.00" arrivalLane="-115602933#2_0" arrivalPos="75.56" arrivalSpeed="7.32" duration="282.00" routeLength="1543.60" waitingTime="43.00" waitingCount="3" stopTime="0.00" timeLoss="101.73" rerouteNo="0" devices="tripinfo_62" vType="DEFAULT_VEHTYPE" speedFactor="1.02" vaporized=""/>
    <tripinfo id="14" depart="44.00" departLane="279952229#0_0" departPos="5.10" departSpeed="0.00" departDelay="1.00" arrival="488.00" arrivalLane="-115602933#2_0" arrivalPos="75.56" arrivalSpeed="7.05" duration="444.00" routeLength="2792.90" waitingTime="53.00" waitingCount="2" stopTime="0.00" timeLoss="102.74" rerouteNo="0" devices="tripinfo_14" vType="DEFAULT_VEHTYPE" speedFactor="0.99" vaporized=""/>
    <tripinfo id="66" depart="199.00" departLane="279952229#0_0" departPos="5.10" departSpeed="0.00" departDelay="0.00" arrival="491.00" arrivalLane="-115602933#2_0" arrivalPos="75.56" arrivalSpeed="6.88" duration="292.00" routeLength="1543.60" waitingTime="56.00" waitingCount="2" stopTime="0.00" timeLoss="89.49" rerouteNo="0" devices="tripinfo_66" vType="DEFAULT_VEHTYPE" speedFactor="0.91" vaporized=""/>
    <tripinfo id="22" depart="67.00" departLane="279952229#0_0" departPos="5.10" departSpeed="0.00" departDelay="0.00" arrival="519.00" arrivalLane="-115602933#2_0" arrivalPos="75.56" arrivalSpeed="6.34" duration="452.00" routeLength="2792.90" waitingTime="49.00" waitingCount="3" stopTime="0.00" timeLoss="105.21" rerouteNo="0" devices="tripinfo_22" vType="DEFAULT_VEHTYPE" speedFactor="0.97" vaporized=""/>
    <tripinfo id="68" depart="205.00" departLane="279952229#0_0" departPos="5.10" departSpeed="0.00" departDelay="0.00" arrival="522.00" arrivalLane="-115602933#2_0" arrivalPos="75.56" arrivalSpeed="7.41" duration="317.00" routeLength="1543.60" waitingTime="87.00" waitingCount="6" stopTime="0.00" timeLoss="140.47" rerouteNo="0" devices="tripinfo_68" vType="DEFAULT_VEHTYPE" speedFactor="1.04" vaporized=""/>
    <tripinfo id="74" depart="223.00" departLane="279952229#0_0" departPos="5.10" departSpeed="0.00" departDelay="0.00" arrival="524.00" arrivalLane="-115602933#2_0" arrivalPos="75.56" arrivalSpeed="6.98" duration="301.00" routeLength="1543.60" waitingTime="64.00" waitingCount="4" stopTime="0.00" timeLoss="109.20" rerouteNo="0" devices="tripinfo_74" vType="DEFAULT_VEHTYPE" speedFactor="0.96" vaporized=""/>
    <tripinfo id="78" depart="235.00" departLane="279952229#0_0" departPos="5.10" departSpeed="0.00" departDelay="0.00" arrival="526.00" arrivalLane="-115602933#2_0" arrivalPos="75.56" arrivalSpeed="7.16" duration="291.00" routeLength="1543.60" waitingTime="57.00" waitingCount="4" stopTime="0.00" timeLoss="109.17" rerouteNo="0" devices="tripinfo_78" vType="DEFAULT_VEHTYPE" speedFactor="1.01" vaporized=""/>
    <tripinfo id="80" depart="241.00" departLane="279952229#0_0" departPos="5.10" departSpeed="0.00" departDelay="0.00" arrival="529.00" arrivalLane="-115602933#2_0" arrivalPos="75.56" arrivalSpeed="8.35" duration="288.00" routeLength="1543.60" waitingTime="46.00" waitingCount="3" stopTime="0.00" timeLoss="109.77" rerouteNo="0" devices="tripinfo_80" vType="DEFAULT_VEHTYPE" speedFactor="1.03" vaporized=""/>
    <tripinfo id="86" depart="259.00" departLane="279952229#0_0" departPos="5.10" departSpeed="0.00" departDelay="0.00" arrival="539.00" arrivalLane="-115602933#2_0" arrivalPos="75.56" arrivalSpeed="5.13" duration="280.00" routeLength="1543.60" waitingTime="38.00" waitingCount="4" stopTime="0.00" timeLoss="96.43" rerouteNo="0" devices="tripinfo_86" vType="DEFAULT_VEHTYPE" speedFactor="1.00" vaporized=""/>
    <tripinfo id="90" depart="271.00" departLane="279952229#0_0" departPos="5.10" departSpeed="0.00" departDelay="0.00" arrival="543.00" arrivalLane="-115602933#2_0" arrivalPos="75.56" arrivalSpeed="7.46" duration="272.00" routeLength="1543.60" waitingTime="36.00" waitingCount="4" stopTime="0.00" timeLoss="91.49" rerouteNo="0" devices="tripinfo_90" vType="DEFAULT_VEHTYPE" speedFactor="1.02" vaporized=""/>
    <tripinfo id="92" depart="277.00" departLane="279952229#0_0" departPos="5.10" departSpeed="0.00" departDelay="0.00" arrival="553.00" arrivalLane="-115602933#2_0" arrivalPos="75.56" arrivalSpeed="6.94" duration="276.00" routeLength="1543.60" waitingTime="8.00" waitingCount="3" stopTime="0.00" timeLoss="56.02" rerouteNo="0" devices="tripinfo_92" vType="DEFAULT_VEHTYPE" speedFactor="0.83" vaporized=""/>
    <tripinfo id="96" depart="289.00" departLane="279952229#0_0" departPos="5.10" departSpeed="0.00" departDelay="0.00" arrival="555.00" arrivalLane="-115602933#2_0" arrivalPos="75.56" arrivalSpeed="8.21" duration="266.00" routeLength="1543.60" waitingTime="4.00" waitingCount="2" stopTime="0.00" timeLoss="84.47" rerouteNo="0" devices="tripinfo_96" vType="DEFAULT_VEHTYPE" speedFactor="1.01" vaporized=""/>
    <tripinfo id="98" depart="295.00" departLane="279952229#0_0" departPos="5.10" departSpeed="0.00" departDelay="0.00" arrival="557.00" arrivalLane="-115602933#2_0" arrivalPos="75.56" arrivalSpeed="8.30" duration="262.00" routeLength="1543.60" waitingTime="3.00" waitingCount="2" stopTime="0.00" timeLoss="98.79" rerouteNo="0" devices="tripinfo_98" vType="DEFAULT_VEHTYPE" speedFactor="1.12" vaporized=""/>
    <tripinfo id="100" depart="301.00" departLane="279952229#0_0" departPos="5.10" departSpeed="0.00" departDelay="0.00" arrival="559.00" arrivalLane="-115602933#2_0" arrivalPos="75.56" arrivalSpeed="8.72" duration="258.00" routeLength="1543.60" waitingTime="5.00" waitingCount="1" stopTime="0.00" timeLoss="85.28" rerouteNo="0" devices="tripinfo_100" vType="DEFAULT_VEHTYPE" speedFactor="1.06" vaporized=""/>
    <tripinfo id="112" depart="337.00" departLane="279952229#0_0" departPos="5.10" departSpeed="0.00" departDelay="0.00" arrival="561.00" arrivalLane="-115602933#2_0" arrivalPos="75.56" arrivalSpeed="8.29" duration="224.00" routeLength="1543.60" waitingTime="6.00" waitingCount="1" stopTime="0.00" timeLoss="56.85" rerouteNo="0" devices="tripinfo_112" vType="DEFAULT_VEHTYPE" speedFactor="1.10" vaporized=""/>
    <tripinfo id="116" depart="349.00" departLane="279952229#0_0" departPos="5.10" departSpeed="0.00" departDelay="0.00" arrival="563.00" arrivalLane="-115602933#2_0" arrivalPos="75.56" arrivalSpeed="8.85" duration="214.00" routeLength="1543.60" waitingTime="5.00" waitingCount="1" stopTime="0.00" timeLoss="57.80" rerouteNo="0" devices="tripinfo_116" vType="DEFAULT_VEHTYPE" speedFactor="1.18" vaporized=""/>
    <tripinfo id="118" depart="355.00" departLane="279952229#0_0" departPos="5.10" departSpeed="0.00" departDelay="0.00" arrival="566.00" arrivalLane="-115602933#2_0" arrivalPos="75.56" arrivalSpeed="7.88" duration="211.00" routeLength="1543.60" waitingTime="0.00" waitingCount="0" stopTime="0.00" timeLoss="25.98" rerouteNo="0" devices="tripinfo_118" vType="DEFAULT_VEHTYPE" speedFactor="0.99" vaporized=""/>
    <tripinfo id="20" depart="62.00" departLane="279952229#0_0" departPos="5.10" departSpeed="0.00" departDelay="1.00" arrival="595.00" arrivalLane="-115602933#2_0" arrivalPos="75.56" arrivalSpeed="8.02" duration="533.00" routeLength="3617.73" waitingTime="43.00" waitingCount="3" stopTime="0.00" timeLoss="108.98" rerouteNo="0" devices="tripinfo_20" vType="DEFAULT_VEHTYPE" speedFactor="1.02" vaporized=""/>
    <tripinfo id="9" depart="25.00" departLane="115604053_0" departPos="5.10" departSpeed="0.00" departDelay="0.00" arrival="600.00" arrivalLane="-441496282#1_0" arrivalPos="70.64" arrivalSpeed="6.14" duration="575.00" routeLength="3393.39" waitingTime="66.00" waitingCount="5" stopTime="0.00" timeLoss="138.88" rerouteNo="0" devices="tripinfo_9" vType="DEFAULT_VEHTYPE" speedFactor="0.86" vaporized=""/>
    <tripinfo id="11" depart="31.00" departLane="115604053_0" departPos="5.10" departSpeed="0.00" departDelay="0.00" arrival="602.00" arrivalLane="-441496282#1_0" arrivalPos="70.64" arrivalSpeed="8.31" duration="571.00" routeLength="3393.39" waitingTime="59.00" waitingCount="5" stopTime="0.00" timeLoss="207.80" rerouteNo="0" devices="tripinfo_11" vType="DEFAULT_VEHTYPE" speedFactor="1.03" vaporized=""/>
    <tripinfo id="17" depart="49.00" departLane="115604053_0" departPos="5.10" departSpeed="0.00" departDelay="0.00" arrival="608.00" arrivalLane="-441496282#1_0" arrivalPos="70.64" arrivalSpeed="6.55" duration="559.00" routeLength="3393.39" waitingTime="58.00" waitingCount="6" stopTime="0.00" timeLoss="163.07" rerouteNo="0" devices="tripinfo_17" vType="DEFAULT_VEHTYPE" speedFactor="0.94" vaporized=""/>
    <tripinfo id="52" depart="157.00" departLane="279952229#0_0" departPos="5.10" departSpeed="0.00" departDelay="0.00" arrival="684.00" arrivalLane="-115602933#2_0" arrivalPos="75.56" arrivalSpeed="7.31" duration="527.00" routeLength="3617.73" waitingTime="28.00" waitingCount="4" stopTime="0.00" timeLoss="102.59" rerouteNo="0" devices="tripinfo_52" vType="DEFAULT_VEHTYPE" speedFactor="1.02" vaporized=""/>
    <tripinfo id="1" depart="1.00" departLane="115604053_0" departPos="5.10" departSpeed="0.00" departDelay="0.00" arrival="823.00" arrivalLane="-441496282#1_0" arrivalPos="70.64" arrivalSpeed="7.60" duration="822.00" routeLength="5834.85" waitingTime="37.00" waitingCount="5" stopTime="0.00" timeLoss="152.68" rerouteNo="0" devices="tripinfo_1" vType="DEFAULT_VEHTYPE" speedFactor="0.94" vaporized=""/>
    <tripinfo id="23" depart="67.00" departLane="115604053_0" departPos="5.10" departSpeed="0.00" departDelay="0.00" arrival="857.00" arrivalLane="-441496282#1_0" arrivalPos="70.64" arrivalSpeed="6.56" duration="790.00" routeLength="3393.39" waitingTime="302.00" waitingCount="3" stopTime="0.00" timeLoss="370.94" rerouteNo="0" devices="tripinfo_23" vType="DEFAULT_VEHTYPE" speedFactor="0.89" vaporized=""/>
    <tripinfo id="25" depart="73.00" departLane="115604053_0" departPos="5.10" departSpeed="0.00" departDelay="0.00" arrival="862.00" arrivalLane="-441496282#1_0" arrivalPos="70.64" arrivalSpeed="6.63" duration="789.00" routeLength="3393.39" waitingTime="288.00" waitingCount="4" stopTime="0.00" timeLoss="361.54" rerouteNo="0" devices="tripinfo_25" vType="DEFAULT_VEHTYPE" speedFactor="0.87" vaporized=""/>
    <tripinfo id="27" depart="79.00" departLane="115604053_0" departPos="5.10" departSpeed="0.00" departDelay="0.00" arrival="865.00" arrivalLane="-441496282#1_0" arrivalPos="70.64" arrivalSpeed="6.75" duration="786.00" routeLength="3393.39" waitingTime="283.00" waitingCount="4" stopTime="0.00" timeLoss="391.37" rerouteNo="0" devices="tripinfo_27" vType="DEFAULT_VEHTYPE" speedFactor="0.95" vaporized=""/>
    <tripinfo id="33" depart="97.00" departLane="115604053_0" departPos="5.10" departSpeed="0.00" departDelay="0.00" arrival="867.00" arrivalLane="-441496282#1_0" arrivalPos="70.64" arrivalSpeed="9.12" duration="770.00" routeLength="3393.39" waitingTime="286.00" waitingCount="5" stopTime="0.00" timeLoss="451.33" rerouteNo="0" devices="tripinfo_33" vType="DEFAULT_VEHTYPE" speedFactor="1.17" vaporized=""/>
    <tripinfo id="35" depart="103.00" departLane="115604053_0" departPos="5.10" departSpeed="0.00" departDelay="0.00" arrival="869.00" arrivalLane="-441496282#1_0" arrivalPos="70.64" arrivalSpeed="8.18" duration="766.00" routeLength="3393.39" waitingTime="279.00" waitingCount="6" stopTime="0.00" timeLoss="400.03" rerouteNo="0" devices="tripinfo_35" vType="DEFAULT_VEHTYPE" speedFactor="1.02" vaporized=""/>
    <tripinfo id="39" depart="115.00" departLane="115604053_0" departPos="5.10" departSpeed="0.00" departDelay="0.00" arrival="873.00" arrivalLane="-441496282#1_0" arrivalPos="70.64" arrivalSpeed="6.86" duration="758.00" routeLength="3393.39" waitingTime="244.00" waitingCount="5" stopTime="0.00" timeLoss="343.52" rerouteNo="0" devices="tripinfo_39" vType="DEFAULT_VEHTYPE" speedFactor="0.90" vaporized=""/>
    <tripinfo id="41" depart="121.00" departLane="115604053_0" departPos="5.10" departSpeed="0.00" departDelay="0.00" arrival="876.00" arrivalLane="-441496282#1_0" arrivalPos="70.64" arrivalSpeed="7.01" duration="755.00" routeLength="3393.39" waitingTime="241.00" waitingCount="6" stopTime="0.00" timeLoss="363.84" rerouteNo="0" devices="tripinfo_41" vType="DEFAULT_VEHTYPE" speedFactor="0.96" vaporized=""/>
    <tripinfo id="43" depart="127.00" departLane="115604053_0" departPos="5.10" departSpeed="0.00" departDelay="0.00" arrival="878.00" arrivalLane="-441496282#1_0" arrivalPos="70.64" arrivalSpeed="7.63" duration="751.00" routeLength="3393.39" waitingTime="232.00" waitingCount="5" stopTime="0.00" timeLoss="391.44" rerouteNo="0" devices="tripinfo_43" vType="DEFAULT_VEHTYPE" speedFactor="1.04" vaporized=""/>
    <tripinfo id="53" depart="157.00" departLane="115604053_0" departPos="5.10" departSpeed="0.00" departDelay="0.00" arrival="880.00" arrivalLane="-441496282#1_0" arrivalPos="70.64" arrivalSpeed="8.99" duration="723.00" routeLength="3393.39" waitingTime="230.00" waitingCount="5" stopTime="0.00" timeLoss="382.51" rerouteNo="0" devices="tripinfo_53" vType="DEFAULT_VEHTYPE" speedFactor="1.10" vaporized=""/>
    <tripinfo id="55" depart="163.00" departLane="115604053_0" departPos="5.10" departSpeed="0.00" departDelay="0.00" arrival="883.00" arrivalLane="-441496282#1_0" arrivalPos="70.64" arrivalSpeed="7.90" duration="720.00" routeLength="3393.39" waitingTime="225.00" waitingCount="4" stopTime="0.00" timeLoss="346.21" rerouteNo="0" devices="tripinfo_55" vType="DEFAULT_VEHTYPE" speedFactor="1.00" vaporized=""/>
    <tripinfo id="59" depart="175.00" departLane="115604053_0" departPos="5.10" departSpeed="0.00" departDelay="0.00" arrival="887.00" arrivalLane="-441496282#1_0" arrivalPos="70.64" arrivalSpeed="7.95" duration="712.00" routeLength="3393.39" waitingTime="226.00" waitingCount="4" stopTime="0.00" timeLoss="327.03" rerouteNo="0" devices="tripinfo_59" vType="DEFAULT_VEHTYPE" speedFactor="0.97" vaporized=""/>
    <tripinfo id="61" depart="181.00" departLane="115604053_0" departPos="5.10" departSpeed="0.00" departDelay="0.00" arrival="889.00" arrivalLane="-441496282#1_0" arrivalPos="70.64" arrivalSpeed="9.30" duration="708.00" routeLength="3393.39" waitingTime="230.00" waitingCount="6" stopTime="0.00" timeLoss="373.40" rerouteNo="0" devices="tripinfo_61" vType="DEFAULT_VEHTYPE" speedFactor="1.12" vaporized=""/>
    <tripinfo id="63" depart="187.00" departLane="115604053_0" departPos="5.10" departSpeed="0.00" departDelay="0.00" arrival="893.00" arrivalLane="-441496282#1_0" arrivalPos="70.64" arrivalSpeed="8.10" duration="706.00" routeLength="3393.39" waitingTime="225.00" waitingCount="4" stopTime="0.00" timeLoss="327.18" rerouteNo="0" devices="tripinfo_63" vType="DEFAULT_VEHTYPE" speedFactor="0.99" vaporized=""/>
    <tripinfo id="67" depart="199.00" departLane="115604053_0" departPos="5.10" departSpeed="0.00" departDelay="0.00" arrival="903.00" arrivalLane="-441496282#1_0" arrivalPos="70.64" arrivalSpeed="7.31" duration="704.00" routeLength="3393.39" waitingTime="207.00" waitingCount="2" stopTime="0.00" timeLoss="296.23" rerouteNo="0" devices="tripinfo_67" vType="DEFAULT_VEHTYPE" speedFactor="0.91" vaporized=""/>
    <tripinfo id="69" depart="205.00" departLane="115604053_0" departPos="5.10" departSpeed="0.00" departDelay="0.00" arrival="905.00" arrivalLane="-441496282#1_0" arrivalPos="70.64" arrivalSpeed="7.90" duration="700.00" routeLength="3393.39" waitingTime="213.00" waitingCount="3" stopTime="0.00" timeLoss="335.28" rerouteNo="0" devices="tripinfo_69" vType="DEFAULT_VEHTYPE" speedFactor="1.02" vaporized=""/>
    <tripinfo id="40" depart="121.00" departLane="279952229#0_0" departPos="5.10" departSpeed="0.00" departDelay="0.00" arrival="928.00" arrivalLane="-115602933#2_0" arrivalPos="75.56" arrivalSpeed="7.47" duration="807.00" routeLength="2761.43" waitingTime="338.00" waitingCount="3" stopTime="0.00" timeLoss="424.45" rerouteNo="0" devices="tripinfo_40" vType="DEFAULT_VEHTYPE" speedFactor="1.03" vaporized=""/>
    <tripinfo id="5" depart="13.00" departLane="115604053_0" departPos="5.10" departSpeed="0.00" departDelay="0.00" arrival="974.00" arrivalLane="-441496282#1_0" arrivalPos="70.64" arrivalSpeed="5.91" duration="961.00" routeLength="5834.85" waitingTime="73.00" waitingCount="6" stopTime="0.00" timeLoss="204.48" rerouteNo="0" devices="tripinfo_5" vType="DEFAULT_VEHTYPE" speedFactor="0.83" vaporized=""/>
    <tripinfo id="7" depart="19.00" departLane="115604053_0" departPos="5.10" departSpeed="0.00" departDelay="0.00" arrival="977.00" arrivalLane="-441496282#1_0" arrivalPos="70.64" arrivalSpeed="6.58" duration="958.00" routeLength="5834.85" waitingTime="73.00" waitingCount="7" stopTime="0.00" timeLoss="247.97" rerouteNo="0" devices="tripinfo_7" vType="DEFAULT_VEHTYPE" speedFactor="0.89" vaporized=""/>
    <tripinfo id="13" depart="37.00" departLane="115604053_0" departPos="5.10" departSpeed="0.00" departDelay="0.00" arrival="979.00" arrivalLane="-441496282#1_0" arrivalPos="70.64" arrivalSpeed="8.67" duration="942.00" routeLength="5834.85" waitingTime="66.00" waitingCount="6" stopTime="0.00" timeLoss="381.67" rerouteNo="0" devices="tripinfo_13" vType="DEFAULT_VEHTYPE" speedFactor="1.12" vaporized=""/>
    <tripinfo id="21" depart="61.00" departLane="115604053_0" departPos="5.10" departSpeed="0.00" departDelay="0.00" arrival="981.00" arrivalLane="-441496282#1_0" arrivalPos="70.64" arrivalSpeed="8.08" duration="920.00" routeLength="5834.85" waitingTime="80.00" waitingCount="5" stopTime="0.00" timeLoss="297.99" rerouteNo="0" devices="tripinfo_21" vType="DEFAULT_VEHTYPE" speedFactor="1.01" vaporized=""/>
    <tripinfo id="138" depart="415.00" departLane="279952229#0_0" departPos="5.10" departSpeed="0.00" departDelay="0.00" arrival="982.00" arrivalLane="-115602933#2_0" arrivalPos="75.56" arrivalSpeed="7.80" duration="567.00" routeLength="1522.94" waitingTime="301.00" waitingCount="1" stopTime="0.00" timeLoss="330.38" rerouteNo="0" devices="tripinfo_138" vType="DEFAULT_VEHTYPE" speedFactor="1.00" vaporized=""/>
    <tripinfo id="29" depart="85.00" departLane="115604053_0" departPos="5.10" departSpeed="0.00" departDelay="0.00" arrival="984.00" arrivalLane="-441496282#1_0" arrivalPos="70.64" arrivalSpeed="7.62" duration="899.00" routeLength="5834.85" waitingTime="74.00" waitingCount="7" stopTime="0.00" timeLoss="224.37" rerouteNo="0" devices="tripinfo_29" vType="DEFAULT_VEHTYPE" speedFactor="0.93" vaporized=""/>
    <tripinfo id="37" depart="109.00" departLane="115604053_0" departPos="5.10" departSpeed="0.00" departDelay="0.00" arrival="986.00" arrivalLane="-441496282#1_0" arrivalPos="70.64" arrivalSpeed="9.09" duration="877.00" routeLength="5834.85" waitingTime="75.00" waitingCount="9" stopTime="0.00" timeLoss="344.36" rerouteNo="0" devices="tripinfo_37" vType="DEFAULT_VEHTYPE" speedFactor="1.18" vaporized=""/>
    <tripinfo id="45" depart="133.00" departLane="115604053_0" departPos="5.10" departSpeed="0.00" departDelay="0.00" arrival="988.00" arrivalLane="-441496282#1_0" arrivalPos="70.64" arrivalSpeed="8.61" duration="855.00" routeLength="5834.85" waitingTime="60.00" waitingCount="6" stopTime="0.00" timeLoss="277.61" rerouteNo="0" devices="tripinfo_45" vType="DEFAULT_VEHTYPE" speedFactor="1.09" vaporized=""/>
    <tripinfo id="51" depart="151.00" departLane="115604053_0" departPos="5.10" departSpeed="0.00" departDelay="0.00" arrival="990.00" arrivalLane="-441496282#1_0" arrivalPos="70.64" arrivalSpeed="8.91" duration="839.00" routeLength="5834.85" waitingTime="61.00" waitingCount="7" stopTime="0.00" timeLoss="301.95" rerouteNo="0" devices="tripinfo_51" vType="DEFAULT_VEHTYPE" speedFactor="1.17" vaporized=""/>
    <tripinfo id="73" depart="217.00" departLane="115604053_0" departPos="5.10" departSpeed="0.00" departDelay="0.00" arrival="992.00" arrivalLane="-441496282#1_0" arrivalPos="70.64" arrivalSpeed="7.77" duration="775.00" routeLength="5834.85" waitingTime="21.00" waitingCount="3" stopTime="0.00" timeLoss="178.82" rerouteNo="0" devices="tripinfo_73" vType="DEFAULT_VEHTYPE" speedFactor="1.06" vaporized=""/>
    <tripinfo id="87" depart="259.00" departLane="115604053_0" departPos="5.10" departSpeed="0.00" departDelay="0.00" arrival="1022.00" arrivalLane="-441496282#1_0" arrivalPos="70.64" arrivalSpeed="8.27" duration="763.00" routeLength="5834.85" waitingTime="39.00" waitingCount="3" stopTime="0.00" timeLoss="161.69" rerouteNo="0" devices="tripinfo_87" vType="DEFAULT_VEHTYPE" speedFactor="1.04" vaporized=""/>