<?xml version="1.0" encoding="UTF-8"?>

<<<<<<< HEAD
<!-- generated on 2024-01-23 10:32:27 by Eclipse SUMO sumo Version 1.19.0
=======
<!-- generated on 2024-01-23 11:17:11 by Eclipse SUMO sumo Version 1.19.0
>>>>>>> c071b484766a98d409a2d2c77d6ffb7dbf9b7b79
<configuration xmlns:xsi="http://www.w3.org/2001/XMLSchema-instance" xsi:noNamespaceSchemaLocation="http://sumo.dlr.de/xsd/sumoConfiguration.xsd">

    <input>
        <net-file value="Network_and_config/csomor1.net.xml"/>
    </input>

    <output>
        <summary-output value="Network_and_config/summary.xml"/>
        <tripinfo-output value="Network_and_config/tripinfo.xml"/>
    </output>

    <traci_server>
<<<<<<< HEAD
        <remote-port value="51223"/>
=======
        <remote-port value="49960"/>
>>>>>>> c071b484766a98d409a2d2c77d6ffb7dbf9b7b79
    </traci_server>

</configuration>
-->

<tripinfos xmlns:xsi="http://www.w3.org/2001/XMLSchema-instance" xsi:noNamespaceSchemaLocation="http://sumo.dlr.de/xsd/tripinfo_file.xsd">
<<<<<<< HEAD
    <tripinfo id="5" depart="13.00" departLane="115604053_0" departPos="5.10" departSpeed="0.00" departDelay="0.00" arrival="221.00" arrivalLane="-441496282#1_0" arrivalPos="70.64" arrivalSpeed="6.40" duration="208.00" routeLength="1277.66" waitingTime="6.00" waitingCount="1" stopTime="0.00" timeLoss="34.12" rerouteNo="0" devices="tripinfo_5" vType="DEFAULT_VEHTYPE" speedFactor="0.83" vaporized=""/>
    <tripinfo id="7" depart="19.00" departLane="115604053_0" departPos="5.10" departSpeed="0.00" departDelay="0.00" arrival="223.00" arrivalLane="-441496282#1_0" arrivalPos="70.64" arrivalSpeed="6.35" duration="204.00" routeLength="1277.66" waitingTime="5.00" waitingCount="1" stopTime="0.00" timeLoss="41.16" rerouteNo="0" devices="tripinfo_7" vType="DEFAULT_VEHTYPE" speedFactor="0.89" vaporized=""/>
    <tripinfo id="9" depart="25.00" departLane="115604053_0" departPos="5.10" departSpeed="0.00" departDelay="0.00" arrival="226.00" arrivalLane="-441496282#1_0" arrivalPos="70.64" arrivalSpeed="6.28" duration="201.00" routeLength="1277.66" waitingTime="0.00" waitingCount="0" stopTime="0.00" timeLoss="31.95" rerouteNo="0" devices="tripinfo_9" vType="DEFAULT_VEHTYPE" speedFactor="0.86" vaporized=""/>
    <tripinfo id="11" depart="31.00" departLane="115604053_0" departPos="5.10" departSpeed="0.00" departDelay="0.00" arrival="228.00" arrivalLane="-441496282#1_0" arrivalPos="70.64" arrivalSpeed="7.92" duration="197.00" routeLength="1277.66" waitingTime="0.00" waitingCount="0" stopTime="0.00" timeLoss="56.27" rerouteNo="0" devices="tripinfo_11" vType="DEFAULT_VEHTYPE" speedFactor="1.03" vaporized=""/>
    <tripinfo id="13" depart="37.00" departLane="115604053_0" departPos="5.10" departSpeed="0.00" departDelay="0.00" arrival="230.00" arrivalLane="-441496282#1_0" arrivalPos="70.64" arrivalSpeed="8.44" duration="193.00" routeLength="1277.66" waitingTime="0.00" waitingCount="0" stopTime="0.00" timeLoss="64.45" rerouteNo="0" devices="tripinfo_13" vType="DEFAULT_VEHTYPE" speedFactor="1.12" vaporized=""/>
    <tripinfo id="15" depart="43.00" departLane="115604053_0" departPos="5.10" departSpeed="0.00" departDelay="0.00" arrival="233.00" arrivalLane="-441496282#1_0" arrivalPos="70.64" arrivalSpeed="6.67" duration="190.00" routeLength="1277.66" waitingTime="0.00" waitingCount="0" stopTime="0.00" timeLoss="33.80" rerouteNo="0" devices="tripinfo_15" vType="DEFAULT_VEHTYPE" speedFactor="0.93" vaporized=""/>
    <tripinfo id="17" depart="49.00" departLane="115604053_0" departPos="5.10" departSpeed="0.00" departDelay="0.00" arrival="235.00" arrivalLane="-441496282#1_0" arrivalPos="70.64" arrivalSpeed="7.25" duration="186.00" routeLength="1277.66" waitingTime="2.00" waitingCount="1" stopTime="0.00" timeLoss="32.88" rerouteNo="0" devices="tripinfo_17" vType="DEFAULT_VEHTYPE" speedFactor="0.94" vaporized=""/>
    <tripinfo id="21" depart="61.00" departLane="115604053_0" departPos="5.10" departSpeed="0.00" departDelay="0.00" arrival="237.00" arrivalLane="-441496282#1_0" arrivalPos="70.64" arrivalSpeed="7.45" duration="176.00" routeLength="1277.66" waitingTime="0.00" waitingCount="0" stopTime="0.00" timeLoss="33.70" rerouteNo="0" devices="tripinfo_21" vType="DEFAULT_VEHTYPE" speedFactor="1.01" vaporized=""/>
    <tripinfo id="25" depart="73.00" departLane="115604053_0" departPos="5.10" departSpeed="0.00" departDelay="0.00" arrival="261.00" arrivalLane="-441496282#1_0" arrivalPos="70.64" arrivalSpeed="6.48" duration="188.00" routeLength="1277.66" waitingTime="0.00" waitingCount="0" stopTime="0.00" timeLoss="23.03" rerouteNo="0" devices="tripinfo_25" vType="DEFAULT_VEHTYPE" speedFactor="0.87" vaporized=""/>
    <tripinfo id="27" depart="79.00" departLane="115604053_0" departPos="5.10" departSpeed="0.00" departDelay="0.00" arrival="263.00" arrivalLane="-441496282#1_0" arrivalPos="70.64" arrivalSpeed="6.84" duration="184.00" routeLength="1277.66" waitingTime="0.00" waitingCount="0" stopTime="0.00" timeLoss="32.18" rerouteNo="0" devices="tripinfo_27" vType="DEFAULT_VEHTYPE" speedFactor="0.95" vaporized=""/>
    <tripinfo id="29" depart="85.00" departLane="115604053_0" departPos="5.10" departSpeed="0.00" departDelay="0.00" arrival="271.00" arrivalLane="-441496282#1_0" arrivalPos="70.64" arrivalSpeed="7.15" duration="186.00" routeLength="1277.66" waitingTime="2.00" waitingCount="1" stopTime="0.00" timeLoss="31.77" rerouteNo="0" devices="tripinfo_29" vType="DEFAULT_VEHTYPE" speedFactor="0.93" vaporized=""/>
    <tripinfo id="31" depart="91.00" departLane="115604053_0" departPos="5.10" departSpeed="0.00" departDelay="0.00" arrival="273.00" arrivalLane="-441496282#1_0" arrivalPos="70.64" arrivalSpeed="9.26" duration="182.00" routeLength="1277.66" waitingTime="0.00" waitingCount="0" stopTime="0.00" timeLoss="57.10" rerouteNo="0" devices="tripinfo_31" vType="DEFAULT_VEHTYPE" speedFactor="1.15" vaporized=""/>
    <tripinfo id="33" depart="97.00" departLane="115604053_0" departPos="5.10" departSpeed="0.00" departDelay="0.00" arrival="275.00" arrivalLane="-441496282#1_0" arrivalPos="70.64" arrivalSpeed="8.52" duration="178.00" routeLength="1277.66" waitingTime="1.00" waitingCount="1" stopTime="0.00" timeLoss="54.74" rerouteNo="0" devices="tripinfo_33" vType="DEFAULT_VEHTYPE" speedFactor="1.17" vaporized=""/>
    <tripinfo id="35" depart="103.00" departLane="115604053_0" departPos="5.10" departSpeed="0.00" departDelay="0.00" arrival="277.00" arrivalLane="-441496282#1_0" arrivalPos="70.64" arrivalSpeed="8.11" duration="174.00" routeLength="1277.66" waitingTime="0.00" waitingCount="0" stopTime="0.00" timeLoss="32.18" rerouteNo="0" devices="tripinfo_35" vType="DEFAULT_VEHTYPE" speedFactor="1.02" vaporized=""/>
    <tripinfo id="37" depart="109.00" departLane="115604053_0" departPos="5.10" departSpeed="0.00" departDelay="0.00" arrival="279.00" arrivalLane="-441496282#1_0" arrivalPos="70.64" arrivalSpeed="9.34" duration="170.00" routeLength="1277.66" waitingTime="0.00" waitingCount="0" stopTime="0.00" timeLoss="47.70" rerouteNo="0" devices="tripinfo_37" vType="DEFAULT_VEHTYPE" speedFactor="1.18" vaporized=""/>
    <tripinfo id="39" depart="115.00" departLane="115604053_0" departPos="5.10" departSpeed="0.00" departDelay="0.00" arrival="300.00" arrivalLane="-441496282#1_0" arrivalPos="70.64" arrivalSpeed="6.77" duration="185.00" routeLength="1277.66" waitingTime="0.00" waitingCount="0" stopTime="0.00" timeLoss="25.34" rerouteNo="0" devices="tripinfo_39" vType="DEFAULT_VEHTYPE" speedFactor="0.90" vaporized=""/>
    <tripinfo id="41" depart="121.00" departLane="115604053_0" departPos="5.10" departSpeed="0.00" departDelay="0.00" arrival="302.00" arrivalLane="-441496282#1_0" arrivalPos="70.64" arrivalSpeed="6.85" duration="181.00" routeLength="1277.66" waitingTime="0.00" waitingCount="0" stopTime="0.00" timeLoss="30.08" rerouteNo="0" devices="tripinfo_41" vType="DEFAULT_VEHTYPE" speedFactor="0.96" vaporized=""/>
    <tripinfo id="43" depart="127.00" departLane="115604053_0" departPos="5.10" departSpeed="0.00" departDelay="0.00" arrival="304.00" arrivalLane="-441496282#1_0" arrivalPos="70.64" arrivalSpeed="7.50" duration="177.00" routeLength="1277.66" waitingTime="0.00" waitingCount="0" stopTime="0.00" timeLoss="38.50" rerouteNo="0" devices="tripinfo_43" vType="DEFAULT_VEHTYPE" speedFactor="1.04" vaporized=""/>
    <tripinfo id="49" depart="145.00" departLane="115604053_0" departPos="5.10" departSpeed="0.00" departDelay="0.00" arrival="338.00" arrivalLane="-441496282#1_0" arrivalPos="70.64" arrivalSpeed="6.97" duration="193.00" routeLength="1277.66" waitingTime="0.00" waitingCount="0" stopTime="0.00" timeLoss="22.66" rerouteNo="0" devices="tripinfo_49" vType="DEFAULT_VEHTYPE" speedFactor="0.85" vaporized=""/>
    <tripinfo id="53" depart="157.00" departLane="115604053_0" departPos="5.10" departSpeed="0.00" departDelay="0.00" arrival="340.00" arrivalLane="-441496282#1_0" arrivalPos="70.64" arrivalSpeed="8.42" duration="183.00" routeLength="1277.66" waitingTime="1.00" waitingCount="1" stopTime="0.00" timeLoss="51.48" rerouteNo="0" devices="tripinfo_53" vType="DEFAULT_VEHTYPE" speedFactor="1.10" vaporized=""/>
    <tripinfo id="55" depart="163.00" departLane="115604053_0" departPos="5.10" departSpeed="0.00" departDelay="0.00" arrival="342.00" arrivalLane="-441496282#1_0" arrivalPos="70.64" arrivalSpeed="8.08" duration="179.00" routeLength="1277.66" waitingTime="1.00" waitingCount="1" stopTime="0.00" timeLoss="34.43" rerouteNo="0" devices="tripinfo_55" vType="DEFAULT_VEHTYPE" speedFactor="1.00" vaporized=""/>
    <tripinfo id="57" depart="169.00" departLane="115604053_0" departPos="5.10" departSpeed="0.00" departDelay="0.00" arrival="344.00" arrivalLane="-441496282#1_0" arrivalPos="70.64" arrivalSpeed="8.27" duration="175.00" routeLength="1277.66" waitingTime="0.00" waitingCount="0" stopTime="0.00" timeLoss="48.23" rerouteNo="0" devices="tripinfo_57" vType="DEFAULT_VEHTYPE" speedFactor="1.14" vaporized=""/>
    <tripinfo id="61" depart="181.00" departLane="115604053_0" departPos="5.10" departSpeed="0.00" departDelay="0.00" arrival="346.00" arrivalLane="-441496282#1_0" arrivalPos="70.64" arrivalSpeed="9.03" duration="165.00" routeLength="1277.66" waitingTime="0.00" waitingCount="0" stopTime="0.00" timeLoss="36.27" rerouteNo="0" devices="tripinfo_61" vType="DEFAULT_VEHTYPE" speedFactor="1.12" vaporized=""/>
    <tripinfo id="63" depart="187.00" departLane="115604053_0" departPos="5.10" departSpeed="0.00" departDelay="0.00" arrival="355.00" arrivalLane="-441496282#1_0" arrivalPos="70.64" arrivalSpeed="7.91" duration="168.00" routeLength="1277.66" waitingTime="0.00" waitingCount="0" stopTime="0.00" timeLoss="21.39" rerouteNo="0" devices="tripinfo_63" vType="DEFAULT_VEHTYPE" speedFactor="0.99" vaporized=""/>
    <tripinfo id="2" depart="7.00" departLane="279952229#0_0" departPos="5.10" departSpeed="0.00" departDelay="0.00" arrival="374.00" arrivalLane="-115602933#2_0" arrivalPos="75.56" arrivalSpeed="7.25" duration="367.00" routeLength="2745.54" waitingTime="0.00" waitingCount="0" stopTime="0.00" timeLoss="37.18" rerouteNo="0" devices="tripinfo_2" vType="DEFAULT_VEHTYPE" speedFactor="1.01" vaporized=""/>
    <tripinfo id="4" depart="13.00" departLane="279952229#0_0" departPos="5.10" departSpeed="0.00" departDelay="0.00" arrival="377.00" arrivalLane="-115602933#2_0" arrivalPos="75.56" arrivalSpeed="7.80" duration="364.00" routeLength="2745.54" waitingTime="0.00" waitingCount="0" stopTime="0.00" timeLoss="41.27" rerouteNo="0" devices="tripinfo_4" vType="DEFAULT_VEHTYPE" speedFactor="1.03" vaporized=""/>
    <tripinfo id="10" depart="31.00" departLane="279952229#0_0" departPos="5.10" departSpeed="0.00" departDelay="0.00" arrival="380.00" arrivalLane="-115602933#2_0" arrivalPos="75.56" arrivalSpeed="8.55" duration="349.00" routeLength="2745.54" waitingTime="0.00" waitingCount="0" stopTime="0.00" timeLoss="43.06" rerouteNo="0" devices="tripinfo_10" vType="DEFAULT_VEHTYPE" speedFactor="1.09" vaporized=""/>
    <tripinfo id="65" depart="193.00" departLane="115604053_0" departPos="5.10" departSpeed="0.00" departDelay="0.00" arrival="384.00" arrivalLane="-441496282#1_0" arrivalPos="70.64" arrivalSpeed="7.21" duration="191.00" routeLength="1277.66" waitingTime="0.00" waitingCount="0" stopTime="0.00" timeLoss="27.13" rerouteNo="0" devices="tripinfo_65" vType="DEFAULT_VEHTYPE" speedFactor="0.88" vaporized=""/>
    <tripinfo id="67" depart="199.00" departLane="115604053_0" departPos="5.10" departSpeed="0.00" departDelay="0.00" arrival="386.00" arrivalLane="-441496282#1_0" arrivalPos="70.64" arrivalSpeed="6.85" duration="187.00" routeLength="1277.66" waitingTime="2.00" waitingCount="1" stopTime="0.00" timeLoss="29.18" rerouteNo="0" devices="tripinfo_67" vType="DEFAULT_VEHTYPE" speedFactor="0.91" vaporized=""/>
    <tripinfo id="69" depart="205.00" departLane="115604053_0" departPos="5.10" departSpeed="0.00" departDelay="0.00" arrival="388.00" arrivalLane="-441496282#1_0" arrivalPos="70.64" arrivalSpeed="8.44" duration="183.00" routeLength="1277.66" waitingTime="0.00" waitingCount="0" stopTime="0.00" timeLoss="42.18" rerouteNo="0" devices="tripinfo_69" vType="DEFAULT_VEHTYPE" speedFactor="1.02" vaporized=""/>
    <tripinfo id="71" depart="211.00" departLane="115604053_0" departPos="5.10" departSpeed="0.00" departDelay="0.00" arrival="391.00" arrivalLane="-441496282#1_0" arrivalPos="70.64" arrivalSpeed="7.54" duration="180.00" routeLength="1277.66" waitingTime="0.00" waitingCount="0" stopTime="0.00" timeLoss="31.10" rerouteNo="0" devices="tripinfo_71" vType="DEFAULT_VEHTYPE" speedFactor="0.97" vaporized=""/>
    <tripinfo id="75" depart="223.00" departLane="115604053_0" departPos="5.10" departSpeed="0.00" departDelay="0.00" arrival="393.00" arrivalLane="-441496282#1_0" arrivalPos="70.64" arrivalSpeed="7.73" duration="170.00" routeLength="1277.66" waitingTime="0.00" waitingCount="0" stopTime="0.00" timeLoss="23.38" rerouteNo="0" devices="tripinfo_75" vType="DEFAULT_VEHTYPE" speedFactor="0.98" vaporized=""/>
    <tripinfo id="85" depart="253.00" departLane="115604053_0" departPos="5.10" departSpeed="0.00" departDelay="0.00" arrival="427.00" arrivalLane="-441496282#1_0" arrivalPos="70.64" arrivalSpeed="7.42" duration="174.00" routeLength="1277.66" waitingTime="2.00" waitingCount="1" stopTime="0.00" timeLoss="26.30" rerouteNo="0" devices="tripinfo_85" vType="DEFAULT_VEHTYPE" speedFactor="0.98" vaporized=""/>
    <tripinfo id="89" depart="265.00" departLane="115604053_0" departPos="5.10" departSpeed="0.00" departDelay="0.00" arrival="440.00" arrivalLane="-441496282#1_0" arrivalPos="70.64" arrivalSpeed="7.97" duration="175.00" routeLength="1277.66" waitingTime="2.00" waitingCount="1" stopTime="0.00" timeLoss="33.34" rerouteNo="0" devices="tripinfo_89" vType="DEFAULT_VEHTYPE" speedFactor="1.02" vaporized=""/>
    <tripinfo id="91" depart="271.00" departLane="115604053_0" departPos="5.10" departSpeed="0.00" departDelay="0.00" arrival="458.00" arrivalLane="-441496282#1_0" arrivalPos="70.64" arrivalSpeed="6.51" duration="187.00" routeLength="1277.66" waitingTime="0.00" waitingCount="0" stopTime="0.00" timeLoss="25.00" rerouteNo="0" devices="tripinfo_91" vType="DEFAULT_VEHTYPE" speedFactor="0.89" vaporized=""/>
    <tripinfo id="18" depart="55.00" departLane="279952229#0_0" departPos="5.10" departSpeed="0.00" departDelay="0.00" arrival="459.00" arrivalLane="-115602933#2_0" arrivalPos="75.56" arrivalSpeed="6.80" duration="404.00" routeLength="2745.54" waitingTime="0.00" waitingCount="0" stopTime="0.00" timeLoss="48.32" rerouteNo="0" devices="tripinfo_18" vType="DEFAULT_VEHTYPE" speedFactor="0.94" vaporized=""/>
    <tripinfo id="93" depart="277.00" departLane="115604053_0" departPos="5.10" departSpeed="0.00" departDelay="0.00" arrival="461.00" arrivalLane="-441496282#1_0" arrivalPos="70.64" arrivalSpeed="6.45" duration="184.00" routeLength="1277.66" waitingTime="0.00" waitingCount="0" stopTime="0.00" timeLoss="27.07" rerouteNo="0" devices="tripinfo_93" vType="DEFAULT_VEHTYPE" speedFactor="0.92" vaporized=""/>
    <tripinfo id="1" depart="1.00" departLane="115604053_0" departPos="5.10" departSpeed="0.00" departDelay="0.00" arrival="465.00" arrivalLane="-441496282#1_0" arrivalPos="70.64" arrivalSpeed="7.58" duration="464.00" routeLength="2960.45" waitingTime="40.00" waitingCount="1" stopTime="0.00" timeLoss="95.48" rerouteNo="0" devices="tripinfo_1" vType="DEFAULT_VEHTYPE" speedFactor="0.94" vaporized=""/>
    <tripinfo id="22" depart="67.00" departLane="279952229#0_0" departPos="5.10" departSpeed="0.00" departDelay="0.00" arrival="465.00" arrivalLane="-115602933#2_0" arrivalPos="75.56" arrivalSpeed="6.97" duration="398.00" routeLength="2745.54" waitingTime="1.00" waitingCount="1" stopTime="0.00" timeLoss="56.16" rerouteNo="0" devices="tripinfo_22" vType="DEFAULT_VEHTYPE" speedFactor="0.97" vaporized=""/>
    <tripinfo id="3" depart="7.00" departLane="115604053_0" departPos="5.10" departSpeed="0.00" departDelay="0.00" arrival="467.00" arrivalLane="-441496282#1_0" arrivalPos="70.64" arrivalSpeed="7.90" duration="460.00" routeLength="2960.45" waitingTime="38.00" waitingCount="1" stopTime="0.00" timeLoss="139.82" rerouteNo="0" devices="tripinfo_3" vType="DEFAULT_VEHTYPE" speedFactor="1.08" vaporized=""/>
    <tripinfo id="95" depart="283.00" departLane="115604053_0" departPos="5.10" departSpeed="0.00" departDelay="0.00" arrival="469.00" arrivalLane="-441496282#1_0" arrivalPos="70.64" arrivalSpeed="8.71" duration="186.00" routeLength="1277.66" waitingTime="6.00" waitingCount="1" stopTime="0.00" timeLoss="49.64" rerouteNo="0" devices="tripinfo_95" vType="DEFAULT_VEHTYPE" speedFactor="1.06" vaporized=""/>
    <tripinfo id="97" depart="289.00" departLane="115604053_0" departPos="5.10" departSpeed="0.00" departDelay="0.00" arrival="474.00" arrivalLane="-441496282#1_0" arrivalPos="70.64" arrivalSpeed="6.55" duration="185.00" routeLength="1277.66" waitingTime="1.00" waitingCount="1" stopTime="0.00" timeLoss="26.65" rerouteNo="0" devices="tripinfo_97" vType="DEFAULT_VEHTYPE" speedFactor="0.91" vaporized=""/>
    <tripinfo id="99" depart="295.00" departLane="115604053_0" departPos="5.10" departSpeed="0.00" departDelay="0.00" arrival="476.00" arrivalLane="-441496282#1_0" arrivalPos="70.64" arrivalSpeed="8.42" duration="181.00" routeLength="1277.66" waitingTime="0.00" waitingCount="0" stopTime="0.00" timeLoss="49.70" rerouteNo="0" devices="tripinfo_99" vType="DEFAULT_VEHTYPE" speedFactor="1.10" vaporized=""/>
    <tripinfo id="101" depart="301.00" departLane="115604053_0" departPos="5.10" departSpeed="0.00" departDelay="0.00" arrival="479.00" arrivalLane="-441496282#1_0" arrivalPos="70.64" arrivalSpeed="7.04" duration="178.00" routeLength="1277.66" waitingTime="0.00" waitingCount="0" stopTime="0.00" timeLoss="27.08" rerouteNo="0" devices="tripinfo_101" vType="DEFAULT_VEHTYPE" speedFactor="0.96" vaporized=""/>
    <tripinfo id="103" depart="307.00" departLane="115604053_0" departPos="5.10" departSpeed="0.00" departDelay="0.00" arrival="481.00" arrivalLane="-441496282#1_0" arrivalPos="70.64" arrivalSpeed="7.73" duration="174.00" routeLength="1277.66" waitingTime="0.00" waitingCount="0" stopTime="0.00" timeLoss="23.07" rerouteNo="0" devices="tripinfo_103" vType="DEFAULT_VEHTYPE" speedFactor="0.95" vaporized=""/>
    <tripinfo id="107" depart="319.00" departLane="115604053_0" departPos="5.10" departSpeed="0.00" departDelay="0.00" arrival="483.00" arrivalLane="-441496282#1_0" arrivalPos="70.64" arrivalSpeed="7.86" duration="164.00" routeLength="1277.66" waitingTime="0.00" waitingCount="0" stopTime="0.00" timeLoss="25.04" rerouteNo="0" devices="tripinfo_107" vType="DEFAULT_VEHTYPE" speedFactor="1.03" vaporized=""/>
    <tripinfo id="26" depart="79.00" departLane="279952229#0_0" departPos="5.10" departSpeed="0.00" departDelay="0.00" arrival="495.00" arrivalLane="-115602933#2_0" arrivalPos="75.56" arrivalSpeed="6.53" duration="416.00" routeLength="2745.54" waitingTime="6.00" waitingCount="1" stopTime="0.00" timeLoss="52.84" rerouteNo="0" devices="tripinfo_26" vType="DEFAULT_VEHTYPE" speedFactor="0.92" vaporized=""/>
    <tripinfo id="109" depart="325.00" departLane="115604053_0" departPos="5.10" departSpeed="0.00" departDelay="0.00" arrival="495.00" arrivalLane="-441496282#1_0" arrivalPos="70.64" arrivalSpeed="7.16" duration="170.00" routeLength="1277.66" waitingTime="0.00" waitingCount="0" stopTime="0.00" timeLoss="19.71" rerouteNo="0" devices="tripinfo_109" vType="DEFAULT_VEHTYPE" speedFactor="0.96" vaporized=""/>
    <tripinfo id="30" depart="91.00" departLane="279952229#0_0" departPos="5.10" departSpeed="0.00" departDelay="0.00" arrival="497.00" arrivalLane="-115602933#2_0" arrivalPos="75.56" arrivalSpeed="8.92" duration="406.00" routeLength="2745.54" waitingTime="20.00" waitingCount="2" stopTime="0.00" timeLoss="123.39" rerouteNo="0" devices="tripinfo_30" vType="DEFAULT_VEHTYPE" speedFactor="1.18" vaporized=""/>
    <tripinfo id="32" depart="97.00" departLane="279952229#0_0" departPos="5.10" departSpeed="0.00" departDelay="0.00" arrival="501.00" arrivalLane="-115602933#2_0" arrivalPos="75.56" arrivalSpeed="7.91" duration="404.00" routeLength="2745.54" waitingTime="12.00" waitingCount="1" stopTime="0.00" timeLoss="72.52" rerouteNo="0" devices="tripinfo_32" vType="DEFAULT_VEHTYPE" speedFactor="1.01" vaporized=""/>
    <tripinfo id="34" depart="103.00" departLane="279952229#0_0" departPos="5.10" departSpeed="0.00" departDelay="0.00" arrival="505.00" arrivalLane="-115602933#2_0" arrivalPos="75.56" arrivalSpeed="7.76" duration="402.00" routeLength="2745.54" waitingTime="10.00" waitingCount="1" stopTime="0.00" timeLoss="66.52" rerouteNo="0" devices="tripinfo_34" vType="DEFAULT_VEHTYPE" speedFactor="0.99" vaporized=""/>
    <tripinfo id="44" depart="133.00" departLane="279952229#0_0" departPos="5.10" departSpeed="0.00" departDelay="0.00" arrival="510.00" arrivalLane="-115602933#2_0" arrivalPos="75.56" arrivalSpeed="7.51" duration="377.00" routeLength="2745.54" waitingTime="10.00" waitingCount="1" stopTime="0.00" timeLoss="58.32" rerouteNo="0" devices="tripinfo_44" vType="DEFAULT_VEHTYPE" speedFactor="1.04" vaporized=""/>
    <tripinfo id="111" depart="331.00" departLane="115604053_0" departPos="5.10" departSpeed="0.00" departDelay="0.00" arrival="524.00" arrivalLane="-441496282#1_0" arrivalPos="70.64" arrivalSpeed="7.04" duration="193.00" routeLength="1277.66" waitingTime="0.00" waitingCount="0" stopTime="0.00" timeLoss="26.36" rerouteNo="0" devices="tripinfo_111" vType="DEFAULT_VEHTYPE" speedFactor="0.87" vaporized=""/>
    <tripinfo id="23" depart="67.00" departLane="115604053_0" departPos="5.10" departSpeed="0.00" departDelay="0.00" arrival="529.00" arrivalLane="-441496282#1_0" arrivalPos="70.64" arrivalSpeed="6.55" duration="462.00" routeLength="2960.45" waitingTime="10.00" waitingCount="2" stopTime="0.00" timeLoss="72.99" rerouteNo="0" devices="tripinfo_23" vType="DEFAULT_VEHTYPE" speedFactor="0.89" vaporized=""/>
    <tripinfo id="117" depart="349.00" departLane="115604053_0" departPos="5.10" departSpeed="0.00" departDelay="0.00" arrival="531.00" arrivalLane="-441496282#1_0" arrivalPos="70.64" arrivalSpeed="8.30" duration="182.00" routeLength="1277.66" waitingTime="3.00" waitingCount="1" stopTime="0.00" timeLoss="38.61" rerouteNo="0" devices="tripinfo_117" vType="DEFAULT_VEHTYPE" speedFactor="1.00" vaporized=""/>
    <tripinfo id="119" depart="355.00" departLane="115604053_0" departPos="5.10" departSpeed="0.00" departDelay="0.00" arrival="533.00" arrivalLane="-441496282#1_0" arrivalPos="70.64" arrivalSpeed="8.41" duration="178.00" routeLength="1277.66" waitingTime="9.00" waitingCount="2" stopTime="0.00" timeLoss="43.58" rerouteNo="0" devices="tripinfo_119" vType="DEFAULT_VEHTYPE" speedFactor="1.07" vaporized=""/>
    <tripinfo id="125" depart="373.00" departLane="115604053_0" departPos="5.10" departSpeed="0.00" departDelay="0.00" arrival="535.00" arrivalLane="-441496282#1_0" arrivalPos="70.64" arrivalSpeed="8.70" duration="162.00" routeLength="1277.66" waitingTime="0.00" waitingCount="0" stopTime="0.00" timeLoss="36.73" rerouteNo="0" devices="tripinfo_125" vType="DEFAULT_VEHTYPE" speedFactor="1.15" vaporized=""/>
    <tripinfo id="48" depart="145.00" departLane="279952229#0_0" departPos="5.10" departSpeed="0.00" departDelay="0.00" arrival="576.00" arrivalLane="-115602933#2_0" arrivalPos="75.56" arrivalSpeed="6.98" duration="431.00" routeLength="2745.54" waitingTime="3.00" waitingCount="1" stopTime="0.00" timeLoss="50.51" rerouteNo="0" devices="tripinfo_48" vType="DEFAULT_VEHTYPE" speedFactor="0.88" vaporized=""/>
    <tripinfo id="127" depart="379.00" departLane="115604053_0" departPos="5.10" departSpeed="0.00" departDelay="0.00" arrival="588.00" arrivalLane="-441496282#1_0" arrivalPos="70.64" arrivalSpeed="6.65" duration="209.00" routeLength="1277.66" waitingTime="2.00" waitingCount="1" stopTime="0.00" timeLoss="33.96" rerouteNo="0" devices="tripinfo_127" vType="DEFAULT_VEHTYPE" speedFactor="0.82" vaporized=""/>
    <tripinfo id="45" depart="133.00" departLane="115604053_0" departPos="5.10" departSpeed="0.00" departDelay="0.00" arrival="590.00" arrivalLane="-441496282#1_0" arrivalPos="70.64" arrivalSpeed="7.96" duration="457.00" routeLength="2960.45" waitingTime="67.00" waitingCount="5" stopTime="0.00" timeLoss="138.87" rerouteNo="0" devices="tripinfo_45" vType="DEFAULT_VEHTYPE" speedFactor="1.09" vaporized=""/>
    <tripinfo id="131" depart="391.00" departLane="115604053_0" departPos="5.10" departSpeed="0.00" departDelay="0.00" arrival="592.00" arrivalLane="-441496282#1_0" arrivalPos="70.64" arrivalSpeed="8.51" duration="201.00" routeLength="1277.66" waitingTime="6.00" waitingCount="3" stopTime="0.00" timeLoss="66.40" rerouteNo="0" devices="tripinfo_131" vType="DEFAULT_VEHTYPE" speedFactor="1.07" vaporized=""/>
    <tripinfo id="133" depart="397.00" departLane="115604053_0" departPos="5.10" departSpeed="0.00" departDelay="0.00" arrival="594.00" arrivalLane="-441496282#1_0" arrivalPos="70.64" arrivalSpeed="7.87" duration="197.00" routeLength="1277.66" waitingTime="1.00" waitingCount="1" stopTime="0.00" timeLoss="58.44" rerouteNo="0" devices="tripinfo_133" vType="DEFAULT_VEHTYPE" speedFactor="1.04" vaporized=""/>
    <tripinfo id="137" depart="409.00" departLane="115604053_0" departPos="5.10" departSpeed="0.00" departDelay="0.00" arrival="597.00" arrivalLane="-441496282#1_0" arrivalPos="70.64" arrivalSpeed="7.69" duration="188.00" routeLength="1277.66" waitingTime="4.00" waitingCount="2" stopTime="0.00" timeLoss="45.31" rerouteNo="0" devices="tripinfo_137" vType="DEFAULT_VEHTYPE" speedFactor="1.02" vaporized=""/>
    <tripinfo id="139" depart="415.00" departLane="115604053_0" departPos="5.10" departSpeed="0.00" departDelay="0.00" arrival="600.00" arrivalLane="-441496282#1_0" arrivalPos="70.64" arrivalSpeed="7.74" duration="185.00" routeLength="1277.66" waitingTime="0.00" waitingCount="0" stopTime="0.00" timeLoss="33.43" rerouteNo="0" devices="tripinfo_139" vType="DEFAULT_VEHTYPE" speedFactor="0.95" vaporized=""/>
    <tripinfo id="141" depart="421.00" departLane="115604053_0" departPos="5.10" departSpeed="0.00" departDelay="0.00" arrival="602.00" arrivalLane="-441496282#1_0" arrivalPos="70.64" arrivalSpeed="9.55" duration="181.00" routeLength="1277.66" waitingTime="1.00" waitingCount="1" stopTime="0.00" timeLoss="55.90" rerouteNo="0" devices="tripinfo_141" vType="DEFAULT_VEHTYPE" speedFactor="1.16" vaporized=""/>
    <tripinfo id="145" depart="433.00" departLane="115604053_0" departPos="5.10" departSpeed="0.00" departDelay="0.00" arrival="604.00" arrivalLane="-441496282#1_0" arrivalPos="70.64" arrivalSpeed="8.68" duration="171.00" routeLength="1277.66" waitingTime="0.00" waitingCount="0" stopTime="0.00" timeLoss="43.83" rerouteNo="0" devices="tripinfo_145" vType="DEFAULT_VEHTYPE" speedFactor="1.14" vaporized=""/>
    <tripinfo id="147" depart="439.00" departLane="115604053_0" departPos="5.10" departSpeed="0.00" departDelay="0.00" arrival="606.00" arrivalLane="-441496282#1_0" arrivalPos="70.64" arrivalSpeed="7.68" duration="167.00" routeLength="1277.66" waitingTime="0.00" waitingCount="0" stopTime="0.00" timeLoss="23.50" rerouteNo="0" devices="tripinfo_147" vType="DEFAULT_VEHTYPE" speedFactor="1.00" vaporized=""/>
    <tripinfo id="149" depart="445.00" departLane="115604053_0" departPos="5.10" departSpeed="0.00" departDelay="0.00" arrival="608.00" arrivalLane="-441496282#1_0" arrivalPos="70.64" arrivalSpeed="7.65" duration="163.00" routeLength="1277.66" waitingTime="0.00" waitingCount="0" stopTime="0.00" timeLoss="24.44" rerouteNo="0" devices="tripinfo_149" vType="DEFAULT_VEHTYPE" speedFactor="1.04" vaporized=""/>
    <tripinfo id="151" depart="451.00" departLane="115604053_0" departPos="5.10" departSpeed="0.00" departDelay="0.00" arrival="615.00" arrivalLane="-441496282#1_0" arrivalPos="70.64" arrivalSpeed="7.54" duration="164.00" routeLength="1277.66" waitingTime="0.00" waitingCount="0" stopTime="0.00" timeLoss="20.35" rerouteNo="0" devices="tripinfo_151" vType="DEFAULT_VEHTYPE" speedFactor="1.00" vaporized=""/>
    <tripinfo id="19" depart="55.00" departLane="115604053_0" departPos="5.10" departSpeed="0.00" departDelay="0.00" arrival="624.00" arrivalLane="-441496282#1_0" arrivalPos="70.64" arrivalSpeed="8.36" duration="569.00" routeLength="4771.53" waitingTime="31.00" waitingCount="3" stopTime="0.00" timeLoss="135.46" rerouteNo="0" devices="tripinfo_19" vType="DEFAULT_VEHTYPE" speedFactor="1.16" vaporized=""/>
    <tripinfo id="66" depart="199.00" departLane="279952229#0_0" departPos="5.10" departSpeed="0.00" departDelay="0.00" arrival="632.00" arrivalLane="-115602933#2_0" arrivalPos="75.56" arrivalSpeed="6.29" duration="433.00" routeLength="2745.54" waitingTime="13.00" waitingCount="2" stopTime="0.00" timeLoss="65.10" rerouteNo="0" devices="tripinfo_66" vType="DEFAULT_VEHTYPE" speedFactor="0.91" vaporized=""/>