<?xml version="1.0" encoding="UTF-8"?>

<!-- generated on 2024-01-24 13:08:16 by Eclipse SUMO sumo Version 1.19.0
<configuration xmlns:xsi="http://www.w3.org/2001/XMLSchema-instance" xsi:noNamespaceSchemaLocation="http://sumo.dlr.de/xsd/sumoConfiguration.xsd">

    <input>
        <net-file value="Network_and_config/csomor1.net.xml"/>
        <route-files value="Network_and_config/test.rou.xml"/>
    </input>

    <output>
        <summary-output value="Network_and_config/summary.xml"/>
        <tripinfo-output value="Network_and_config/tripinfo.xml"/>
    </output>

    <traci_server>
        <remote-port value="54299"/>
    </traci_server>

</configuration>
-->

<tripinfos xmlns:xsi="http://www.w3.org/2001/XMLSchema-instance" xsi:noNamespaceSchemaLocation="http://sumo.dlr.de/xsd/tripinfo_file.xsd">
    <tripinfo id="0" depart="1.00" departLane="279952229#0_0" departPos="5.10" departSpeed="0.00" departDelay="0.00" arrival="87.00" arrivalLane="-115602933#2_0" arrivalPos="75.56" arrivalSpeed="8.35" duration="86.00" routeLength="669.33" waitingTime="0.00" waitingCount="0" stopTime="0.00" timeLoss="9.54" rerouteNo="0" devices="tripinfo_0" vType="DEFAULT_VEHTYPE" speedFactor="1.06" vaporized=""/>
    <tripinfo id="2" depart="7.00" departLane="279952229#0_0" departPos="5.10" departSpeed="0.00" departDelay="0.00" arrival="98.00" arrivalLane="-115602933#2_0" arrivalPos="75.56" arrivalSpeed="8.33" duration="91.00" routeLength="669.33" waitingTime="0.00" waitingCount="0" stopTime="0.00" timeLoss="10.87" rerouteNo="0" devices="tripinfo_2" vType="DEFAULT_VEHTYPE" speedFactor="1.01" vaporized=""/>
    <tripinfo id="3" depart="10.00" departLane="279952229#0_0" departPos="5.10" departSpeed="0.00" departDelay="3.00" arrival="100.00" arrivalLane="-115602933#2_0" arrivalPos="75.56" arrivalSpeed="8.70" duration="90.00" routeLength="669.33" waitingTime="0.00" waitingCount="0" stopTime="0.00" timeLoss="14.76" rerouteNo="0" devices="tripinfo_3" vType="DEFAULT_VEHTYPE" speedFactor="1.08" vaporized=""/>
    <tripinfo id="4" depart="13.00" departLane="279952229#0_0" departPos="5.10" departSpeed="0.00" departDelay="0.00" arrival="104.00" arrivalLane="-115602933#2_0" arrivalPos="75.56" arrivalSpeed="7.85" duration="91.00" routeLength="668.45" waitingTime="0.00" waitingCount="0" stopTime="0.00" timeLoss="11.91" rerouteNo="0" devices="tripinfo_4" vType="DEFAULT_VEHTYPE" speedFactor="1.03" vaporized=""/>
    <tripinfo id="5" depart="16.00" departLane="279952229#0_0" departPos="5.10" departSpeed="0.00" departDelay="3.00" arrival="127.00" arrivalLane="-115602933#2_0" arrivalPos="75.56" arrivalSpeed="6.51" duration="111.00" routeLength="669.33" waitingTime="0.00" waitingCount="0" stopTime="0.00" timeLoss="12.79" rerouteNo="0" devices="tripinfo_5" vType="DEFAULT_VEHTYPE" speedFactor="0.83" vaporized=""/>
    <tripinfo id="7" depart="23.00" departLane="279952229#0_0" departPos="5.10" departSpeed="0.00" departDelay="4.00" arrival="129.00" arrivalLane="-115602933#2_0" arrivalPos="75.56" arrivalSpeed="7.16" duration="106.00" routeLength="669.33" waitingTime="0.00" waitingCount="0" stopTime="0.00" timeLoss="14.04" rerouteNo="0" devices="tripinfo_7" vType="DEFAULT_VEHTYPE" speedFactor="0.89" vaporized=""/>
    <tripinfo id="10" depart="32.00" departLane="279952229#0_0" departPos="5.10" departSpeed="0.00" departDelay="1.00" arrival="131.00" arrivalLane="-115602933#2_0" arrivalPos="75.56" arrivalSpeed="8.83" duration="99.00" routeLength="669.33" waitingTime="0.00" waitingCount="0" stopTime="0.00" timeLoss="24.07" rerouteNo="0" devices="tripinfo_10" vType="DEFAULT_VEHTYPE" speedFactor="1.09" vaporized=""/>
    <tripinfo id="13" depart="41.00" departLane="279952229#0_0" departPos="5.10" departSpeed="0.00" departDelay="4.00" arrival="133.00" arrivalLane="-115602933#2_0" arrivalPos="75.56" arrivalSpeed="8.74" duration="92.00" routeLength="669.33" waitingTime="0.00" waitingCount="0" stopTime="0.00" timeLoss="19.18" rerouteNo="0" devices="tripinfo_13" vType="DEFAULT_VEHTYPE" speedFactor="1.12" vaporized=""/>
    <tripinfo id="14" depart="44.00" departLane="279952229#0_0" departPos="5.10" departSpeed="0.00" departDelay="1.00" arrival="137.00" arrivalLane="-115602933#2_0" arrivalPos="75.56" arrivalSpeed="7.98" duration="93.00" routeLength="669.33" waitingTime="0.00" waitingCount="0" stopTime="0.00" timeLoss="10.95" rerouteNo="0" devices="tripinfo_14" vType="DEFAULT_VEHTYPE" speedFactor="0.99" vaporized=""/>
    <tripinfo id="15" depart="47.00" departLane="279952229#0_0" departPos="5.10" departSpeed="0.00" departDelay="4.00" arrival="146.00" arrivalLane="-115602933#2_0" arrivalPos="75.56" arrivalSpeed="7.05" duration="99.00" routeLength="669.33" waitingTime="0.00" waitingCount="0" stopTime="0.00" timeLoss="11.34" rerouteNo="0" devices="tripinfo_15" vType="DEFAULT_VEHTYPE" speedFactor="0.93" vaporized=""/>
    <tripinfo id="17" depart="53.00" departLane="279952229#0_0" departPos="5.10" departSpeed="0.00" departDelay="4.00" arrival="150.00" arrivalLane="-115602933#2_0" arrivalPos="75.56" arrivalSpeed="6.65" duration="97.00" routeLength="669.33" waitingTime="0.00" waitingCount="0" stopTime="0.00" timeLoss="11.26" rerouteNo="0" devices="tripinfo_17" vType="DEFAULT_VEHTYPE" speedFactor="0.94" vaporized=""/>
    <tripinfo id="18" depart="56.00" departLane="279952229#0_0" departPos="5.10" departSpeed="0.00" departDelay="1.00" arrival="154.00" arrivalLane="-115602933#2_0" arrivalPos="75.56" arrivalSpeed="6.98" duration="98.00" routeLength="669.33" waitingTime="0.00" waitingCount="0" stopTime="0.00" timeLoss="11.12" rerouteNo="0" devices="tripinfo_18" vType="DEFAULT_VEHTYPE" speedFactor="0.94" vaporized=""/>
    <tripinfo id="19" depart="59.00" departLane="279952229#0_0" departPos="5.10" departSpeed="0.00" departDelay="4.00" arrival="156.00" arrivalLane="-115602933#2_0" arrivalPos="75.56" arrivalSpeed="8.50" duration="97.00" routeLength="669.33" waitingTime="0.00" waitingCount="0" stopTime="0.00" timeLoss="26.53" rerouteNo="0" devices="tripinfo_19" vType="DEFAULT_VEHTYPE" speedFactor="1.16" vaporized=""/>
    <tripinfo id="20" depart="62.00" departLane="279952229#0_0" departPos="5.10" departSpeed="0.00" departDelay="1.00" arrival="159.00" arrivalLane="-115602933#2_0" arrivalPos="75.56" arrivalSpeed="7.49" duration="97.00" routeLength="669.33" waitingTime="0.00" waitingCount="0" stopTime="0.00" timeLoss="16.64" rerouteNo="0" devices="tripinfo_20" vType="DEFAULT_VEHTYPE" speedFactor="1.02" vaporized=""/>
    <tripinfo id="8" depart="26.00" departLane="279952229#0_0" departPos="5.10" departSpeed="0.00" departDelay="1.00" arrival="162.00" arrivalLane="-115602933#2_0" arrivalPos="75.56" arrivalSpeed="7.65" duration="136.00" routeLength="668.45" waitingTime="34.00" waitingCount="1" stopTime="0.00" timeLoss="49.19" rerouteNo="0" devices="tripinfo_8" vType="DEFAULT_VEHTYPE" speedFactor="0.94" vaporized=""/>
    <tripinfo id="9" depart="29.00" departLane="279952229#0_0" departPos="5.10" departSpeed="0.00" departDelay="4.00" arrival="166.00" arrivalLane="-115602933#2_0" arrivalPos="75.56" arrivalSpeed="6.10" duration="137.00" routeLength="668.45" waitingTime="27.00" waitingCount="1" stopTime="0.00" timeLoss="42.50" rerouteNo="0" devices="tripinfo_9" vType="DEFAULT_VEHTYPE" speedFactor="0.86" vaporized=""/>
    <tripinfo id="16" depart="50.00" departLane="279952229#0_0" departPos="5.10" departSpeed="0.00" departDelay="1.00" arrival="168.00" arrivalLane="-115602933#2_0" arrivalPos="75.56" arrivalSpeed="7.31" duration="118.00" routeLength="668.45" waitingTime="10.00" waitingCount="1" stopTime="0.00" timeLoss="25.85" rerouteNo="0" devices="tripinfo_16" vType="DEFAULT_VEHTYPE" speedFactor="0.88" vaporized=""/>
    <tripinfo id="22" depart="68.00" departLane="279952229#0_0" departPos="5.10" departSpeed="0.00" departDelay="1.00" arrival="170.00" arrivalLane="-115602933#2_0" arrivalPos="75.56" arrivalSpeed="7.49" duration="102.00" routeLength="668.45" waitingTime="1.00" waitingCount="1" stopTime="0.00" timeLoss="18.95" rerouteNo="0" devices="tripinfo_22" vType="DEFAULT_VEHTYPE" speedFactor="0.97" vaporized=""/>
    <tripinfo id="25" depart="77.00" departLane="279952229#0_0" departPos="5.10" departSpeed="0.00" departDelay="4.00" arrival="182.00" arrivalLane="-115602933#2_0" arrivalPos="75.56" arrivalSpeed="6.18" duration="105.00" routeLength="669.33" waitingTime="0.00" waitingCount="0" stopTime="0.00" timeLoss="11.85" rerouteNo="0" devices="tripinfo_25" vType="DEFAULT_VEHTYPE" speedFactor="0.87" vaporized=""/>
    <tripinfo id="26" depart="80.00" departLane="279952229#0_0" departPos="5.10" departSpeed="0.00" departDelay="1.00" arrival="184.00" arrivalLane="-115602933#2_0" arrivalPos="75.56" arrivalSpeed="7.12" duration="104.00" routeLength="669.33" waitingTime="0.00" waitingCount="0" stopTime="0.00" timeLoss="15.54" rerouteNo="0" devices="tripinfo_26" vType="DEFAULT_VEHTYPE" speedFactor="0.92" vaporized=""/>
    <tripinfo id="27" depart="83.00" departLane="279952229#0_0" departPos="5.10" departSpeed="0.00" departDelay="4.00" arrival="187.00" arrivalLane="-115602933#2_0" arrivalPos="75.56" arrivalSpeed="6.61" duration="104.00" routeLength="669.33" waitingTime="0.00" waitingCount="0" stopTime="0.00" timeLoss="17.93" rerouteNo="0" devices="tripinfo_27" vType="DEFAULT_VEHTYPE" speedFactor="0.95" vaporized=""/>
    <tripinfo id="28" depart="86.00" departLane="279952229#0_0" departPos="5.10" departSpeed="0.00" departDelay="1.00" arrival="189.00" arrivalLane="-115602933#2_0" arrivalPos="75.56" arrivalSpeed="8.36" duration="103.00" routeLength="669.33" waitingTime="0.00" waitingCount="0" stopTime="0.00" timeLoss="30.75" rerouteNo="0" devices="tripinfo_28" vType="DEFAULT_VEHTYPE" speedFactor="1.13" vaporized=""/>
    <tripinfo id="30" depart="92.00" departLane="279952229#0_0" departPos="5.10" departSpeed="0.00" departDelay="1.00" arrival="191.00" arrivalLane="-115602933#2_0" arrivalPos="75.56" arrivalSpeed="9.52" duration="99.00" routeLength="669.33" waitingTime="0.00" waitingCount="0" stopTime="0.00" timeLoss="29.63" rerouteNo="0" devices="tripinfo_30" vType="DEFAULT_VEHTYPE" speedFactor="1.18" vaporized=""/>
    <tripinfo id="32" depart="98.00" departLane="279952229#0_0" departPos="5.10" departSpeed="0.00" departDelay="1.00" arrival="193.00" arrivalLane="-115602933#2_0" arrivalPos="75.56" arrivalSpeed="8.25" duration="95.00" routeLength="669.33" waitingTime="0.00" waitingCount="0" stopTime="0.00" timeLoss="14.57" rerouteNo="0" devices="tripinfo_32" vType="DEFAULT_VEHTYPE" speedFactor="1.01" vaporized=""/>
    <tripinfo id="33" depart="101.00" departLane="279952229#0_0" departPos="5.10" departSpeed="0.00" departDelay="4.00" arrival="195.00" arrivalLane="-115602933#2_0" arrivalPos="75.56" arrivalSpeed="9.16" duration="94.00" routeLength="669.33" waitingTime="0.00" waitingCount="0" stopTime="0.00" timeLoss="24.62" rerouteNo="0" devices="tripinfo_33" vType="DEFAULT_VEHTYPE" speedFactor="1.17" vaporized=""/>
    <tripinfo id="34" depart="104.00" departLane="279952229#0_0" departPos="5.10" departSpeed="0.00" departDelay="1.00" arrival="198.00" arrivalLane="-115602933#2_0" arrivalPos="75.56" arrivalSpeed="7.17" duration="94.00" routeLength="669.33" waitingTime="0.00" waitingCount="0" stopTime="0.00" timeLoss="11.90" rerouteNo="0" devices="tripinfo_34" vType="DEFAULT_VEHTYPE" speedFactor="0.99" vaporized=""/>
    <tripinfo id="35" depart="107.00" departLane="279952229#0_0" departPos="5.10" departSpeed="0.00" departDelay="4.00" arrival="200.00" arrivalLane="-115602933#2_0" arrivalPos="75.56" arrivalSpeed="7.76" duration="93.00" routeLength="669.33" waitingTime="0.00" waitingCount="0" stopTime="0.00" timeLoss="13.16" rerouteNo="0" devices="tripinfo_35" vType="DEFAULT_VEHTYPE" speedFactor="1.02" vaporized=""/>
    <tripinfo id="37" depart="113.00" departLane="279952229#0_0" departPos="5.10" departSpeed="0.00" departDelay="4.00" arrival="202.00" arrivalLane="-115602933#2_0" arrivalPos="75.56" arrivalSpeed="9.25" duration="89.00" routeLength="669.33" waitingTime="0.00" waitingCount="0" stopTime="0.00" timeLoss="19.89" rerouteNo="0" devices="tripinfo_37" vType="DEFAULT_VEHTYPE" speedFactor="1.18" vaporized=""/>
    <tripinfo id="1" depart="4.00" departLane="279952229#0_0" departPos="5.10" departSpeed="0.00" departDelay="3.00" arrival="207.00" arrivalLane="-115602933#2_0" arrivalPos="75.56" arrivalSpeed="7.28" duration="203.00" routeLength="1200.24" waitingTime="27.00" waitingCount="1" stopTime="0.00" timeLoss="48.21" rerouteNo="0" devices="tripinfo_1" vType="DEFAULT_VEHTYPE" speedFactor="0.94" vaporized=""/>
    <tripinfo id="6" depart="19.00" departLane="279952229#0_0" departPos="5.10" departSpeed="0.00" departDelay="0.00" arrival="209.00" arrivalLane="-115602933#2_0" arrivalPos="75.56" arrivalSpeed="8.24" duration="190.00" routeLength="1200.24" waitingTime="25.00" waitingCount="2" stopTime="0.00" timeLoss="51.17" rerouteNo="0" devices="tripinfo_6" vType="DEFAULT_VEHTYPE" speedFactor="1.05" vaporized=""/>
    <tripinfo id="11" depart="35.00" departLane="279952229#0_0" departPos="5.10" departSpeed="0.00" departDelay="4.00" arrival="211.00" arrivalLane="-115602933#2_0" arrivalPos="75.56" arrivalSpeed="7.62" duration="176.00" routeLength="1200.24" waitingTime="11.00" waitingCount="1" stopTime="0.00" timeLoss="34.44" rerouteNo="0" devices="tripinfo_11" vType="DEFAULT_VEHTYPE" speedFactor="1.03" vaporized=""/>
    <tripinfo id="40" depart="123.00" departLane="279952229#0_0" departPos="5.10" departSpeed="0.00" departDelay="2.00" arrival="213.00" arrivalLane="-115602933#2_0" arrivalPos="75.56" arrivalSpeed="8.50" duration="90.00" routeLength="669.33" waitingTime="0.00" waitingCount="0" stopTime="0.00" timeLoss="11.18" rerouteNo="0" devices="tripinfo_40" vType="DEFAULT_VEHTYPE" speedFactor="1.03" vaporized=""/>
    <tripinfo id="24" depart="74.00" departLane="279952229#0_0" departPos="5.10" departSpeed="0.00" departDelay="1.00" arrival="223.00" arrivalLane="-115602933#2_0" arrivalPos="75.56" arrivalSpeed="5.67" duration="149.00" routeLength="668.45" waitingTime="33.00" waitingCount="1" stopTime="0.00" timeLoss="50.76" rerouteNo="0" devices="tripinfo_24" vType="DEFAULT_VEHTYPE" speedFactor="0.83" vaporized=""/>
    <tripinfo id="44" depart="135.00" departLane="279952229#0_0" departPos="5.10" departSpeed="0.00" departDelay="2.00" arrival="225.00" arrivalLane="-115602933#2_0" arrivalPos="75.56" arrivalSpeed="8.04" duration="90.00" routeLength="669.33" waitingTime="0.00" waitingCount="0" stopTime="0.00" timeLoss="11.87" rerouteNo="0" devices="tripinfo_44" vType="DEFAULT_VEHTYPE" speedFactor="1.04" vaporized=""/>
    <tripinfo id="12" depart="38.00" departLane="279952229#0_0" departPos="5.10" departSpeed="0.00" departDelay="1.00" arrival="227.00" arrivalLane="-115602933#2_0" arrivalPos="75.56" arrivalSpeed="8.64" duration="189.00" routeLength="1200.24" waitingTime="23.00" waitingCount="2" stopTime="0.00" timeLoss="50.56" rerouteNo="0" devices="tripinfo_12" vType="DEFAULT_VEHTYPE" speedFactor="1.05" vaporized=""/>
    <tripinfo id="21" depart="65.00" departLane="279952229#0_0" departPos="5.10" departSpeed="0.00" departDelay="4.00" arrival="230.00" arrivalLane="-115602933#2_0" arrivalPos="75.56" arrivalSpeed="7.39" duration="165.00" routeLength="1200.24" waitingTime="2.00" waitingCount="1" stopTime="0.00" timeLoss="21.52" rerouteNo="0" devices="tripinfo_21" vType="DEFAULT_VEHTYPE" speedFactor="1.01" vaporized=""/>
    <tripinfo id="41" depart="126.00" departLane="279952229#0_0" departPos="5.10" departSpeed="0.00" departDelay="5.00" arrival="234.00" arrivalLane="-115602933#2_0" arrivalPos="75.56" arrivalSpeed="7.63" duration="108.00" routeLength="668.45" waitingTime="10.00" waitingCount="1" stopTime="0.00" timeLoss="22.97" rerouteNo="0" devices="tripinfo_41" vType="DEFAULT_VEHTYPE" speedFactor="0.96" vaporized=""/>
    <tripinfo id="42" depart="129.00" departLane="279952229#0_0" departPos="5.10" departSpeed="0.00" departDelay="2.00" arrival="236.00" arrivalLane="-115602933#2_0" arrivalPos="75.56" arrivalSpeed="8.46" duration="107.00" routeLength="668.45" waitingTime="8.00" waitingCount="1" stopTime="0.00" timeLoss="32.19" rerouteNo="0" devices="tripinfo_42" vType="DEFAULT_VEHTYPE" speedFactor="1.09" vaporized=""/>
    <tripinfo id="43" depart="132.00" departLane="279952229#0_0" departPos="5.10" departSpeed="0.00" departDelay="5.00" arrival="238.00" arrivalLane="-115602933#2_0" arrivalPos="75.56" arrivalSpeed="7.65" duration="106.00" routeLength="668.45" waitingTime="8.00" waitingCount="1" stopTime="0.00" timeLoss="27.64" rerouteNo="0" devices="tripinfo_43" vType="DEFAULT_VEHTYPE" speedFactor="1.04" vaporized=""/>
    <tripinfo id="51" depart="155.00" departLane="279952229#0_0" departPos="5.10" departSpeed="0.00" departDelay="4.00" arrival="240.00" arrivalLane="-115602933#2_0" arrivalPos="75.56" arrivalSpeed="9.17" duration="85.00" routeLength="668.45" waitingTime="0.00" waitingCount="0" stopTime="0.00" timeLoss="14.95" rerouteNo="0" devices="tripinfo_51" vType="DEFAULT_VEHTYPE" speedFactor="1.17" vaporized=""/>
    <tripinfo id="48" depart="147.00" departLane="279952229#0_0" departPos="5.10" departSpeed="0.00" departDelay="2.00" arrival="251.00" arrivalLane="-115602933#2_0" arrivalPos="75.56" arrivalSpeed="6.88" duration="104.00" routeLength="669.33" waitingTime="0.00" waitingCount="0" stopTime="0.00" timeLoss="11.15" rerouteNo="0" devices="tripinfo_48" vType="DEFAULT_VEHTYPE" speedFactor="0.88" vaporized=""/>
    <tripinfo id="49" depart="149.00" departLane="279952229#0_0" departPos="5.10" departSpeed="0.00" departDelay="4.00" arrival="258.00" arrivalLane="-115602933#2_0" arrivalPos="75.56" arrivalSpeed="6.06" duration="109.00" routeLength="669.33" waitingTime="0.00" waitingCount="0" stopTime="0.00" timeLoss="13.38" rerouteNo="0" devices="tripinfo_49" vType="DEFAULT_VEHTYPE" speedFactor="0.85" vaporized=""/>
    <tripinfo id="52" depart="159.00" departLane="279952229#0_0" departPos="5.10" departSpeed="0.00" departDelay="2.00" arrival="260.00" arrivalLane="-115602933#2_0" arrivalPos="75.56" arrivalSpeed="8.20" duration="101.00" routeLength="669.33" waitingTime="0.00" waitingCount="0" stopTime="0.00" timeLoss="21.04" rerouteNo="0" devices="tripinfo_52" vType="DEFAULT_VEHTYPE" speedFactor="1.02" vaporized=""/>
    <tripinfo id="53" depart="162.00" departLane="279952229#0_0" departPos="5.10" departSpeed="0.00" departDelay="5.00" arrival="262.00" arrivalLane="-115602933#2_0" arrivalPos="75.56" arrivalSpeed="7.93" duration="100.00" routeLength="669.33" waitingTime="0.00" waitingCount="0" stopTime="0.00" timeLoss="25.96" rerouteNo="0" devices="tripinfo_53" vType="DEFAULT_VEHTYPE" speedFactor="1.10" vaporized=""/>
    <tripinfo id="54" depart="165.00" departLane="279952229#0_0" departPos="5.10" departSpeed="0.00" departDelay="2.00" arrival="264.00" arrivalLane="-115602933#2_0" arrivalPos="75.56" arrivalSpeed="7.47" duration="99.00" routeLength="669.33" waitingTime="0.00" waitingCount="0" stopTime="0.00" timeLoss="18.38" rerouteNo="0" devices="tripinfo_54" vType="DEFAULT_VEHTYPE" speedFactor="1.00" vaporized=""/>
    <tripinfo id="55" depart="168.00" departLane="279952229#0_0" departPos="5.10" departSpeed="0.00" departDelay="5.00" arrival="267.00" arrivalLane="-115602933#2_0" arrivalPos="75.56" arrivalSpeed="8.13" duration="99.00" routeLength="669.33" waitingTime="0.00" waitingCount="0" stopTime="0.00" timeLoss="16.99" rerouteNo="0" devices="tripinfo_55" vType="DEFAULT_VEHTYPE" speedFactor="1.00" vaporized=""/>
    <tripinfo id="57" depart="174.00" departLane="279952229#0_0" departPos="5.10" departSpeed="0.00" departDelay="5.00" arrival="269.00" arrivalLane="-115602933#2_0" arrivalPos="75.56" arrivalSpeed="8.23" duration="95.00" routeLength="669.33" waitingTime="0.00" waitingCount="0" stopTime="0.00" timeLoss="23.23" rerouteNo="0" devices="tripinfo_57" vType="DEFAULT_VEHTYPE" speedFactor="1.14" vaporized=""/>
    <tripinfo id="23" depart="71.00" departLane="279952229#0_0" departPos="5.10" departSpeed="0.00" departDelay="4.00" arrival="273.00" arrivalLane="-115602933#2_0" arrivalPos="75.56" arrivalSpeed="7.26" duration="202.00" routeLength="1200.24" waitingTime="13.00" waitingCount="2" stopTime="0.00" timeLoss="38.54" rerouteNo="0" devices="tripinfo_23" vType="DEFAULT_VEHTYPE" speedFactor="0.89" vaporized=""/>
    <tripinfo id="29" depart="89.00" departLane="279952229#0_0" departPos="5.10" departSpeed="0.00" departDelay="4.00" arrival="275.00" arrivalLane="-115602933#2_0" arrivalPos="75.56" arrivalSpeed="7.20" duration="186.00" routeLength="1200.24" waitingTime="7.00" waitingCount="1" stopTime="0.00" timeLoss="30.21" rerouteNo="0" devices="tripinfo_29" vType="DEFAULT_VEHTYPE" speedFactor="0.93" vaporized=""/>
    <tripinfo id="31" depart="95.00" departLane="279952229#0_0" departPos="5.10" departSpeed="0.00" departDelay="4.00" arrival="277.00" arrivalLane="-115602933#2_0" arrivalPos="75.56" arrivalSpeed="9.34" duration="182.00" routeLength="1200.24" waitingTime="5.00" waitingCount="1" stopTime="0.00" timeLoss="55.88" rerouteNo="0" devices="tripinfo_31" vType="DEFAULT_VEHTYPE" speedFactor="1.15" vaporized=""/>
    <tripinfo id="62" depart="189.00" departLane="279952229#0_0" departPos="5.10" departSpeed="0.00" departDelay="2.00" arrival="280.00" arrivalLane="-115602933#2_0" arrivalPos="75.56" arrivalSpeed="8.09" duration="91.00" routeLength="669.33" waitingTime="0.00" waitingCount="0" stopTime="0.00" timeLoss="10.63" rerouteNo="0" devices="tripinfo_62" vType="DEFAULT_VEHTYPE" speedFactor="1.02" vaporized=""/>
    <tripinfo id="56" depart="171.00" departLane="279952229#0_0" departPos="5.10" departSpeed="0.00" departDelay="2.00" arrival="288.00" arrivalLane="-115602933#2_0" arrivalPos="75.56" arrivalSpeed="7.38" duration="117.00" routeLength="668.45" waitingTime="14.00" waitingCount="1" stopTime="0.00" timeLoss="26.94" rerouteNo="0" devices="tripinfo_56" vType="DEFAULT_VEHTYPE" speedFactor="0.90" vaporized=""/>
    <tripinfo id="64" depart="195.00" departLane="279952229#0_0" departPos="5.10" departSpeed="0.00" departDelay="2.00" arrival="292.00" arrivalLane="-115602933#2_0" arrivalPos="75.56" arrivalSpeed="6.58" duration="97.00" routeLength="669.33" waitingTime="0.00" waitingCount="0" stopTime="0.00" timeLoss="10.62" rerouteNo="0" devices="tripinfo_64" vType="DEFAULT_VEHTYPE" speedFactor="0.94" vaporized=""/>
    <tripinfo id="68" depart="207.00" departLane="279952229#0_0" departPos="5.10" departSpeed="0.00" departDelay="2.00" arrival="296.00" arrivalLane="-115602933#2_0" arrivalPos="75.56" arrivalSpeed="7.59" duration="89.00" routeLength="669.33" waitingTime="0.00" waitingCount="0" stopTime="0.00" timeLoss="11.13" rerouteNo="0" devices="tripinfo_68" vType="DEFAULT_VEHTYPE" speedFactor="1.04" vaporized=""/>
    <tripinfo id="69" depart="210.00" departLane="279952229#0_0" departPos="5.10" departSpeed="0.00" departDelay="5.00" arrival="300.00" arrivalLane="-115602933#2_0" arrivalPos="75.56" arrivalSpeed="7.93" duration="90.00" routeLength="669.33" waitingTime="0.00" waitingCount="0" stopTime="0.00" timeLoss="10.07" rerouteNo="0" devices="tripinfo_69" vType="DEFAULT_VEHTYPE" speedFactor="1.02" vaporized=""/>
    <tripinfo id="70" depart="213.00" departLane="279952229#0_0" departPos="5.10" departSpeed="0.00" departDelay="2.00" arrival="303.00" arrivalLane="-115602933#2_0" arrivalPos="75.56" arrivalSpeed="7.97" duration="90.00" routeLength="669.33" waitingTime="0.00" waitingCount="0" stopTime="0.00" timeLoss="10.32" rerouteNo="0" devices="tripinfo_70" vType="DEFAULT_VEHTYPE" speedFactor="1.02" vaporized=""/>
    <tripinfo id="71" depart="216.00" departLane="279952229#0_0" departPos="5.10" departSpeed="0.00" departDelay="5.00" arrival="310.00" arrivalLane="-115602933#2_0" arrivalPos="75.56" arrivalSpeed="7.83" duration="94.00" routeLength="669.33" waitingTime="0.00" waitingCount="0" stopTime="0.00" timeLoss="10.57" rerouteNo="0" devices="tripinfo_71" vType="DEFAULT_VEHTYPE" speedFactor="0.97" vaporized=""/>
    <tripinfo id="72" depart="219.00" departLane="279952229#0_0" departPos="5.10" departSpeed="0.00" departDelay="2.00" arrival="317.00" arrivalLane="-115602933#2_0" arrivalPos="75.56" arrivalSpeed="7.72" duration="98.00" routeLength="669.33" waitingTime="0.00" waitingCount="0" stopTime="0.00" timeLoss="10.99" rerouteNo="0" devices="tripinfo_72" vType="DEFAULT_VEHTYPE" speedFactor="0.94" vaporized=""/>
    <tripinfo id="73" depart="222.00" departLane="279952229#0_0" departPos="5.10" departSpeed="0.00" departDelay="5.00" arrival="319.00" arrivalLane="-115602933#2_0" arrivalPos="75.56" arrivalSpeed="7.61" duration="97.00" routeLength="669.33" waitingTime="0.00" waitingCount="0" stopTime="0.00" timeLoss="19.45" rerouteNo="0" devices="tripinfo_73" vType="DEFAULT_VEHTYPE" speedFactor="1.06" vaporized=""/>
    <tripinfo id="36" depart="110.00" departLane="279952229#0_0" departPos="5.10" departSpeed="0.00" departDelay="1.00" arrival="321.00" arrivalLane="-115602933#2_0" arrivalPos="75.56" arrivalSpeed="6.93" duration="211.00" routeLength="1200.24" waitingTime="39.00" waitingCount="2" stopTime="0.00" timeLoss="61.61" rerouteNo="0" devices="tripinfo_36" vType="DEFAULT_VEHTYPE" speedFactor="0.97" vaporized=""/>
    <tripinfo id="38" depart="117.00" departLane="279952229#0_0" departPos="5.10" departSpeed="0.00" departDelay="2.00" arrival="323.00" arrivalLane="-115602933#2_0" arrivalPos="75.56" arrivalSpeed="8.69" duration="206.00" routeLength="1200.24" waitingTime="37.00" waitingCount="2" stopTime="0.00" timeLoss="74.20" rerouteNo="0" devices="tripinfo_38" vType="DEFAULT_VEHTYPE" speedFactor="1.10" vaporized=""/>
    <tripinfo id="39" depart="120.00" departLane="279952229#0_0" departPos="5.10" departSpeed="0.00" departDelay="5.00" arrival="330.00" arrivalLane="-115602933#2_0" arrivalPos="75.56" arrivalSpeed="6.25" duration="210.00" routeLength="1200.24" waitingTime="22.00" waitingCount="2" stopTime="0.00" timeLoss="48.84" rerouteNo="0" devices="tripinfo_39" vType="DEFAULT_VEHTYPE" speedFactor="0.90" vaporized=""/>
    <tripinfo id="45" depart="138.00" departLane="279952229#0_0" departPos="5.10" departSpeed="0.00" departDelay="5.00" arrival="332.00" arrivalLane="-115602933#2_0" arrivalPos="75.56" arrivalSpeed="7.96" duration="194.00" routeLength="1200.24" waitingTime="21.00" waitingCount="2" stopTime="0.00" timeLoss="60.59" rerouteNo="0" devices="tripinfo_45" vType="DEFAULT_VEHTYPE" speedFactor="1.09" vaporized=""/>
    <tripinfo id="80" depart="243.00" departLane="279952229#0_0" departPos="5.10" departSpeed="0.00" departDelay="2.00" arrival="334.00" arrivalLane="-115602933#2_0" arrivalPos="75.56" arrivalSpeed="7.51" duration="91.00" routeLength="669.33" waitingTime="0.00" waitingCount="0" stopTime="0.00" timeLoss="12.87" rerouteNo="0" devices="tripinfo_80" vType="DEFAULT_VEHTYPE" speedFactor="1.03" vaporized=""/>
    <tripinfo id="81" depart="246.00" departLane="279952229#0_0" departPos="5.10" departSpeed="0.00" departDelay="5.00" arrival="338.00" arrivalLane="-115602933#2_0" arrivalPos="75.56" arrivalSpeed="7.69" duration="92.00" routeLength="669.33" waitingTime="0.00" waitingCount="0" stopTime="0.00" timeLoss="9.96" rerouteNo="0" devices="tripinfo_81" vType="DEFAULT_VEHTYPE" speedFactor="1.00" vaporized=""/>
    <tripinfo id="82" depart="249.00" departLane="279952229#0_0" departPos="5.10" departSpeed="0.00" departDelay="2.00" arrival="341.00" arrivalLane="-115602933#2_0" arrivalPos="75.56" arrivalSpeed="7.50" duration="92.00" routeLength="669.33" waitingTime="0.00" waitingCount="0" stopTime="0.00" timeLoss="12.03" rerouteNo="0" devices="tripinfo_82" vType="DEFAULT_VEHTYPE" speedFactor="1.02" vaporized=""/>
    <tripinfo id="84" depart="255.00" departLane="279952229#0_0" departPos="5.10" departSpeed="0.00" departDelay="2.00" arrival="343.00" arrivalLane="-115602933#2_0" arrivalPos="75.56" arrivalSpeed="9.53" duration="88.00" routeLength="669.33" waitingTime="0.00" waitingCount="0" stopTime="0.00" timeLoss="16.60" rerouteNo="0" devices="tripinfo_84" vType="DEFAULT_VEHTYPE" speedFactor="1.15" vaporized=""/>
    <tripinfo id="58" depart="177.00" departLane="279952229#0_0" departPos="5.10" departSpeed="0.00" departDelay="2.00" arrival="347.00" arrivalLane="-115602933#2_0" arrivalPos="75.56" arrivalSpeed="7.37" duration="170.00" routeLength="668.45" waitingTime="69.00" waitingCount="2" stopTime="0.00" timeLoss="90.29" rerouteNo="0" devices="tripinfo_58" vType="DEFAULT_VEHTYPE" speedFactor="1.02" vaporized=""/>
    <tripinfo id="46" depart="141.00" departLane="279952229#0_0" departPos="5.10" departSpeed="0.00" departDelay="2.00" arrival="350.00" arrivalLane="-115602933#2_0" arrivalPos="75.56" arrivalSpeed="7.62" duration="209.00" routeLength="1200.24" waitingTime="30.00" waitingCount="2" stopTime="0.00" timeLoss="63.35" rerouteNo="0" devices="tripinfo_46" vType="DEFAULT_VEHTYPE" speedFactor="1.00" vaporized=""/>
    <tripinfo id="87" depart="264.00" departLane="279952229#0_0" departPos="5.10" departSpeed="0.00" departDelay="5.00" arrival="352.00" arrivalLane="-115602933#2_0" arrivalPos="75.56" arrivalSpeed="8.59" duration="88.00" routeLength="669.33" waitingTime="0.00" waitingCount="0" stopTime="0.00" timeLoss="10.23" rerouteNo="0" devices="tripinfo_87" vType="DEFAULT_VEHTYPE" speedFactor="1.04" vaporized=""/>
    <tripinfo id="47" depart="144.00" departLane="279952229#0_0" departPos="5.10" departSpeed="0.00" departDelay="5.00" arrival="361.00" arrivalLane="-115602933#2_0" arrivalPos="75.56" arrivalSpeed="6.86" duration="217.00" routeLength="1200.24" waitingTime="24.00" waitingCount="3" stopTime="0.00" timeLoss="55.90" rerouteNo="0" devices="tripinfo_47" vType="DEFAULT_VEHTYPE" speedFactor="0.90" vaporized=""/>