<?xml version="1.0" encoding="UTF-8"?>

<!-- generated on 2024-01-24 13:53:07 by Eclipse SUMO sumo Version 1.19.0
<configuration xmlns:xsi="http://www.w3.org/2001/XMLSchema-instance" xsi:noNamespaceSchemaLocation="http://sumo.dlr.de/xsd/sumoConfiguration.xsd">

    <input>
        <net-file value="Network_and_config/csomor1.net.xml"/>
        <route-files value="Network_and_config/test.rou.xml"/>
    </input>

    <output>
        <summary-output value="Network_and_config/summary.xml"/>
        <tripinfo-output value="Network_and_config/tripinfo.xml"/>
    </output>

    <traci_server>
        <remote-port value="57165"/>
    </traci_server>

</configuration>
-->

<tripinfos xmlns:xsi="http://www.w3.org/2001/XMLSchema-instance" xsi:noNamespaceSchemaLocation="http://sumo.dlr.de/xsd/tripinfo_file.xsd">
    <tripinfo id="2" depart="7.00" departLane="279952229#0_0" departPos="5.10" departSpeed="0.00" departDelay="0.00" arrival="98.00" arrivalLane="-115602933#2_0" arrivalPos="75.56" arrivalSpeed="7.21" duration="91.00" routeLength="669.33" waitingTime="0.00" waitingCount="0" stopTime="0.00" timeLoss="10.49" rerouteNo="0" devices="tripinfo_2" vType="DEFAULT_VEHTYPE" speedFactor="1.01" vaporized=""/>
    <tripinfo id="3" depart="10.00" departLane="279952229#0_0" departPos="5.10" departSpeed="0.00" departDelay="3.00" arrival="100.00" arrivalLane="-115602933#2_0" arrivalPos="75.56" arrivalSpeed="8.94" duration="90.00" routeLength="669.33" waitingTime="0.00" waitingCount="0" stopTime="0.00" timeLoss="14.33" rerouteNo="0" devices="tripinfo_3" vType="DEFAULT_VEHTYPE" speedFactor="1.08" vaporized=""/>
    <tripinfo id="4" depart="13.00" departLane="279952229#0_0" departPos="5.10" departSpeed="0.00" departDelay="0.00" arrival="102.00" arrivalLane="-115602933#2_0" arrivalPos="75.56" arrivalSpeed="8.49" duration="89.00" routeLength="668.45" waitingTime="0.00" waitingCount="0" stopTime="0.00" timeLoss="10.36" rerouteNo="0" devices="tripinfo_4" vType="DEFAULT_VEHTYPE" speedFactor="1.03" vaporized=""/>
    <tripinfo id="5" depart="16.00" departLane="279952229#0_0" departPos="5.10" departSpeed="0.00" departDelay="3.00" arrival="126.00" arrivalLane="-115602933#2_0" arrivalPos="75.56" arrivalSpeed="6.39" duration="110.00" routeLength="668.45" waitingTime="0.00" waitingCount="0" stopTime="0.00" timeLoss="12.55" rerouteNo="0" devices="tripinfo_5" vType="DEFAULT_VEHTYPE" speedFactor="0.83" vaporized=""/>
    <tripinfo id="7" depart="23.00" departLane="279952229#0_0" departPos="5.10" departSpeed="0.00" departDelay="4.00" arrival="129.00" arrivalLane="-115602933#2_0" arrivalPos="75.56" arrivalSpeed="6.77" duration="106.00" routeLength="668.45" waitingTime="0.00" waitingCount="0" stopTime="0.00" timeLoss="13.99" rerouteNo="0" devices="tripinfo_7" vType="DEFAULT_VEHTYPE" speedFactor="0.89" vaporized=""/>
    <tripinfo id="9" depart="29.00" departLane="279952229#0_0" departPos="5.10" departSpeed="0.00" departDelay="4.00" arrival="135.00" arrivalLane="-115602933#2_0" arrivalPos="75.56" arrivalSpeed="6.88" duration="106.00" routeLength="669.33" waitingTime="0.00" waitingCount="0" stopTime="0.00" timeLoss="11.27" rerouteNo="0" devices="tripinfo_9" vType="DEFAULT_VEHTYPE" speedFactor="0.86" vaporized=""/>
    <tripinfo id="10" depart="32.00" departLane="279952229#0_0" departPos="5.10" departSpeed="0.00" departDelay="1.00" arrival="137.00" arrivalLane="-115602933#2_0" arrivalPos="75.56" arrivalSpeed="8.70" duration="105.00" routeLength="669.33" waitingTime="0.00" waitingCount="0" stopTime="0.00" timeLoss="30.36" rerouteNo="0" devices="tripinfo_10" vType="DEFAULT_VEHTYPE" speedFactor="1.09" vaporized=""/>
    <tripinfo id="11" depart="35.00" departLane="279952229#0_0" departPos="5.10" departSpeed="0.00" departDelay="4.00" arrival="140.00" arrivalLane="-115602933#2_0" arrivalPos="75.56" arrivalSpeed="8.25" duration="105.00" routeLength="669.33" waitingTime="0.00" waitingCount="0" stopTime="0.00" timeLoss="25.35" rerouteNo="0" devices="tripinfo_11" vType="DEFAULT_VEHTYPE" speedFactor="1.03" vaporized=""/>
    <tripinfo id="15" depart="47.00" departLane="279952229#0_0" departPos="5.10" departSpeed="0.00" departDelay="4.00" arrival="146.00" arrivalLane="-115602933#2_0" arrivalPos="75.56" arrivalSpeed="6.74" duration="99.00" routeLength="669.33" waitingTime="0.00" waitingCount="0" stopTime="0.00" timeLoss="11.05" rerouteNo="0" devices="tripinfo_15" vType="DEFAULT_VEHTYPE" speedFactor="0.93" vaporized=""/>
    <tripinfo id="12" depart="38.00" departLane="279952229#0_0" departPos="5.10" departSpeed="0.00" departDelay="1.00" arrival="148.00" arrivalLane="-115602933#2_0" arrivalPos="75.56" arrivalSpeed="8.64" duration="110.00" routeLength="668.45" waitingTime="17.00" waitingCount="1" stopTime="0.00" timeLoss="32.41" rerouteNo="0" devices="tripinfo_12" vType="DEFAULT_VEHTYPE" speedFactor="1.05" vaporized=""/>
    <tripinfo id="21" depart="65.00" departLane="279952229#0_0" departPos="5.10" departSpeed="0.00" departDelay="4.00" arrival="156.00" arrivalLane="-115602933#2_0" arrivalPos="75.56" arrivalSpeed="8.09" duration="91.00" routeLength="669.33" waitingTime="0.00" waitingCount="0" stopTime="0.00" timeLoss="10.18" rerouteNo="0" devices="tripinfo_21" vType="DEFAULT_VEHTYPE" speedFactor="1.01" vaporized=""/>
    <tripinfo id="22" depart="68.00" departLane="279952229#0_0" departPos="5.10" departSpeed="0.00" departDelay="1.00" arrival="164.00" arrivalLane="-115602933#2_0" arrivalPos="75.56" arrivalSpeed="7.50" duration="96.00" routeLength="669.33" waitingTime="0.00" waitingCount="0" stopTime="0.00" timeLoss="12.93" rerouteNo="0" devices="tripinfo_22" vType="DEFAULT_VEHTYPE" speedFactor="0.97" vaporized=""/>
    <tripinfo id="23" depart="71.00" departLane="279952229#0_0" departPos="5.10" departSpeed="0.00" departDelay="4.00" arrival="175.00" arrivalLane="-115602933#2_0" arrivalPos="75.56" arrivalSpeed="6.93" duration="104.00" routeLength="669.33" waitingTime="0.00" waitingCount="0" stopTime="0.00" timeLoss="12.50" rerouteNo="0" devices="tripinfo_23" vType="DEFAULT_VEHTYPE" speedFactor="0.89" vaporized=""/>
    <tripinfo id="16" depart="50.00" departLane="279952229#0_0" departPos="5.10" departSpeed="0.00" departDelay="1.00" arrival="178.00" arrivalLane="-115602933#2_0" arrivalPos="75.56" arrivalSpeed="6.33" duration="128.00" routeLength="668.45" waitingTime="20.00" waitingCount="1" stopTime="0.00" timeLoss="35.42" rerouteNo="0" devices="tripinfo_16" vType="DEFAULT_VEHTYPE" speedFactor="0.88" vaporized=""/>
    <tripinfo id="24" depart="74.00" departLane="279952229#0_0" departPos="5.10" departSpeed="0.00" departDelay="1.00" arrival="185.00" arrivalLane="-115602933#2_0" arrivalPos="75.56" arrivalSpeed="6.33" duration="111.00" routeLength="669.33" waitingTime="0.00" waitingCount="0" stopTime="0.00" timeLoss="12.59" rerouteNo="0" devices="tripinfo_24" vType="DEFAULT_VEHTYPE" speedFactor="0.83" vaporized=""/>
    <tripinfo id="27" depart="84.00" departLane="279952229#0_0" departPos="5.10" departSpeed="0.00" departDelay="5.00" arrival="187.00" arrivalLane="-115602933#2_0" arrivalPos="75.56" arrivalSpeed="7.08" duration="103.00" routeLength="669.33" waitingTime="0.00" waitingCount="0" stopTime="0.00" timeLoss="17.27" rerouteNo="0" devices="tripinfo_27" vType="DEFAULT_VEHTYPE" speedFactor="0.95" vaporized=""/>
    <tripinfo id="30" depart="93.00" departLane="279952229#0_0" departPos="5.10" departSpeed="0.00" departDelay="2.00" arrival="189.00" arrivalLane="-115602933#2_0" arrivalPos="75.56" arrivalSpeed="9.41" duration="96.00" routeLength="669.33" waitingTime="0.00" waitingCount="0" stopTime="0.00" timeLoss="26.62" rerouteNo="0" devices="tripinfo_30" vType="DEFAULT_VEHTYPE" speedFactor="1.18" vaporized=""/>
    <tripinfo id="0" depart="1.00" departLane="279952229#0_0" departPos="5.10" departSpeed="0.00" departDelay="0.00" arrival="191.00" arrivalLane="-115602933#2_0" arrivalPos="75.56" arrivalSpeed="7.83" duration="190.00" routeLength="1200.24" waitingTime="26.00" waitingCount="1" stopTime="0.00" timeLoss="53.12" rerouteNo="0" devices="tripinfo_0" vType="DEFAULT_VEHTYPE" speedFactor="1.06" vaporized=""/>
    <tripinfo id="1" depart="4.00" departLane="279952229#0_0" departPos="5.10" departSpeed="0.00" departDelay="3.00" arrival="194.00" arrivalLane="-115602933#2_0" arrivalPos="75.56" arrivalSpeed="6.98" duration="190.00" routeLength="1200.24" waitingTime="12.00" waitingCount="1" stopTime="0.00" timeLoss="35.16" rerouteNo="0" devices="tripinfo_1" vType="DEFAULT_VEHTYPE" speedFactor="0.94" vaporized=""/>
    <tripinfo id="6" depart="19.00" departLane="279952229#0_0" departPos="5.10" departSpeed="0.00" departDelay="0.00" arrival="196.00" arrivalLane="-115602933#2_0" arrivalPos="75.56" arrivalSpeed="8.07" duration="177.00" routeLength="1200.24" waitingTime="6.00" waitingCount="2" stopTime="0.00" timeLoss="37.91" rerouteNo="0" devices="tripinfo_6" vType="DEFAULT_VEHTYPE" speedFactor="1.05" vaporized=""/>
    <tripinfo id="34" depart="105.00" departLane="279952229#0_0" departPos="5.10" departSpeed="0.00" departDelay="2.00" arrival="198.00" arrivalLane="-115602933#2_0" arrivalPos="75.56" arrivalSpeed="7.76" duration="93.00" routeLength="669.33" waitingTime="0.00" waitingCount="0" stopTime="0.00" timeLoss="11.55" rerouteNo="0" devices="tripinfo_34" vType="DEFAULT_VEHTYPE" speedFactor="0.99" vaporized=""/>
    <tripinfo id="36" depart="111.00" departLane="279952229#0_0" departPos="5.10" departSpeed="0.00" departDelay="2.00" arrival="204.00" arrivalLane="-115602933#2_0" arrivalPos="75.56" arrivalSpeed="7.82" duration="93.00" routeLength="669.33" waitingTime="0.00" waitingCount="0" stopTime="0.00" timeLoss="10.03" rerouteNo="0" devices="tripinfo_36" vType="DEFAULT_VEHTYPE" speedFactor="0.97" vaporized=""/>
    <tripinfo id="8" depart="26.00" departLane="279952229#0_0" departPos="5.10" departSpeed="0.00" departDelay="1.00" arrival="209.00" arrivalLane="-115602933#2_0" arrivalPos="75.56" arrivalSpeed="7.47" duration="183.00" routeLength="1200.24" waitingTime="7.00" waitingCount="1" stopTime="0.00" timeLoss="27.75" rerouteNo="0" devices="tripinfo_8" vType="DEFAULT_VEHTYPE" speedFactor="0.94" vaporized=""/>
    <tripinfo id="13" depart="41.00" departLane="279952229#0_0" departPos="5.10" departSpeed="0.00" departDelay="4.00" arrival="211.00" arrivalLane="-115602933#2_0" arrivalPos="75.56" arrivalSpeed="8.92" duration="170.00" routeLength="1200.24" waitingTime="10.00" waitingCount="2" stopTime="0.00" timeLoss="40.45" rerouteNo="0" devices="tripinfo_13" vType="DEFAULT_VEHTYPE" speedFactor="1.12" vaporized=""/>
    <tripinfo id="14" depart="44.00" departLane="279952229#0_0" departPos="5.10" departSpeed="0.00" departDelay="1.00" arrival="213.00" arrivalLane="-115602933#2_0" arrivalPos="75.56" arrivalSpeed="7.66" duration="169.00" routeLength="1200.24" waitingTime="1.00" waitingCount="1" stopTime="0.00" timeLoss="22.62" rerouteNo="0" devices="tripinfo_14" vType="DEFAULT_VEHTYPE" speedFactor="0.99" vaporized=""/>
    <tripinfo id="17" depart="53.00" departLane="279952229#0_0" departPos="5.10" departSpeed="0.00" departDelay="4.00" arrival="217.00" arrivalLane="-115602933#2_0" arrivalPos="75.56" arrivalSpeed="6.73" duration="164.00" routeLength="668.45" waitingTime="54.00" waitingCount="2" stopTime="0.00" timeLoss="77.47" rerouteNo="0" devices="tripinfo_17" vType="DEFAULT_VEHTYPE" speedFactor="0.94" vaporized=""/>
    <tripinfo id="41" depart="126.00" departLane="279952229#0_0" departPos="5.10" departSpeed="0.00" departDelay="5.00" arrival="222.00" arrivalLane="-115602933#2_0" arrivalPos="75.56" arrivalSpeed="7.07" duration="96.00" routeLength="669.33" waitingTime="0.00" waitingCount="0" stopTime="0.00" timeLoss="10.94" rerouteNo="0" devices="tripinfo_41" vType="DEFAULT_VEHTYPE" speedFactor="0.96" vaporized=""/>
    <tripinfo id="20" depart="62.00" departLane="279952229#0_0" departPos="5.10" departSpeed="0.00" departDelay="1.00" arrival="224.00" arrivalLane="-115602933#2_0" arrivalPos="75.56" arrivalSpeed="8.06" duration="162.00" routeLength="1200.24" waitingTime="0.00" waitingCount="0" stopTime="0.00" timeLoss="19.04" rerouteNo="0" devices="tripinfo_20" vType="DEFAULT_VEHTYPE" speedFactor="1.02" vaporized=""/>
    <tripinfo id="46" depart="141.00" departLane="279952229#0_0" departPos="5.10" departSpeed="0.00" departDelay="2.00" arrival="232.00" arrivalLane="-115602933#2_0" arrivalPos="75.56" arrivalSpeed="7.77" duration="91.00" routeLength="669.33" waitingTime="0.00" waitingCount="0" stopTime="0.00" timeLoss="9.57" rerouteNo="0" devices="tripinfo_46" vType="DEFAULT_VEHTYPE" speedFactor="1.00" vaporized=""/>
    <tripinfo id="18" depart="56.00" departLane="279952229#0_0" departPos="5.10" departSpeed="0.00" departDelay="1.00" arrival="237.00" arrivalLane="-115602933#2_0" arrivalPos="75.56" arrivalSpeed="7.32" duration="181.00" routeLength="668.45" waitingTime="66.00" waitingCount="3" stopTime="0.00" timeLoss="94.17" rerouteNo="0" devices="tripinfo_18" vType="DEFAULT_VEHTYPE" speedFactor="0.94" vaporized=""/>
    <tripinfo id="19" depart="59.00" departLane="279952229#0_0" departPos="5.10" departSpeed="0.00" departDelay="4.00" arrival="239.00" arrivalLane="-115602933#2_0" arrivalPos="75.56" arrivalSpeed="9.35" duration="180.00" routeLength="668.45" waitingTime="64.00" waitingCount="3" stopTime="0.00" timeLoss="109.19" rerouteNo="0" devices="tripinfo_19" vType="DEFAULT_VEHTYPE" speedFactor="1.16" vaporized=""/>
    <tripinfo id="25" depart="78.00" departLane="279952229#0_0" departPos="5.10" departSpeed="0.00" departDelay="5.00" arrival="244.00" arrivalLane="-115602933#2_0" arrivalPos="75.56" arrivalSpeed="6.51" duration="166.00" routeLength="668.45" waitingTime="46.00" waitingCount="3" stopTime="0.00" timeLoss="72.98" rerouteNo="0" devices="tripinfo_25" vType="DEFAULT_VEHTYPE" speedFactor="0.87" vaporized=""/>
    <tripinfo id="28" depart="87.00" departLane="279952229#0_0" departPos="5.10" departSpeed="0.00" departDelay="2.00" arrival="246.00" arrivalLane="-115602933#2_0" arrivalPos="75.56" arrivalSpeed="8.69" duration="159.00" routeLength="668.45" waitingTime="44.00" waitingCount="2" stopTime="0.00" timeLoss="86.97" rerouteNo="0" devices="tripinfo_28" vType="DEFAULT_VEHTYPE" speedFactor="1.13" vaporized=""/>
    <tripinfo id="48" depart="147.00" departLane="279952229#0_0" departPos="5.10" departSpeed="0.00" departDelay="2.00" arrival="252.00" arrivalLane="-115602933#2_0" arrivalPos="75.56" arrivalSpeed="6.65" duration="105.00" routeLength="669.33" waitingTime="0.00" waitingCount="0" stopTime="0.00" timeLoss="12.32" rerouteNo="0" devices="tripinfo_48" vType="DEFAULT_VEHTYPE" speedFactor="0.88" vaporized=""/>
    <tripinfo id="49" depart="150.00" departLane="279952229#0_0" departPos="5.10" departSpeed="0.00" departDelay="5.00" arrival="260.00" arrivalLane="-115602933#2_0" arrivalPos="75.56" arrivalSpeed="5.91" duration="110.00" routeLength="669.33" waitingTime="0.00" waitingCount="0" stopTime="0.00" timeLoss="14.77" rerouteNo="0" devices="tripinfo_49" vType="DEFAULT_VEHTYPE" speedFactor="0.85" vaporized=""/>
    <tripinfo id="50" depart="153.00" departLane="279952229#0_0" departPos="5.10" departSpeed="0.00" departDelay="2.00" arrival="263.00" arrivalLane="-115602933#2_0" arrivalPos="75.56" arrivalSpeed="7.06" duration="110.00" routeLength="669.33" waitingTime="0.00" waitingCount="0" stopTime="0.00" timeLoss="14.81" rerouteNo="0" devices="tripinfo_50" vType="DEFAULT_VEHTYPE" speedFactor="0.85" vaporized=""/>
    <tripinfo id="57" depart="174.00" departLane="279952229#0_0" departPos="5.10" departSpeed="0.00" departDelay="5.00" arrival="265.00" arrivalLane="-115602933#2_0" arrivalPos="75.56" arrivalSpeed="9.29" duration="91.00" routeLength="669.33" waitingTime="0.00" waitingCount="0" stopTime="0.00" timeLoss="19.36" rerouteNo="0" devices="tripinfo_57" vType="DEFAULT_VEHTYPE" speedFactor="1.14" vaporized=""/>
    <tripinfo id="58" depart="177.00" departLane="279952229#0_0" departPos="5.10" departSpeed="0.00" departDelay="2.00" arrival="267.00" arrivalLane="-115602933#2_0" arrivalPos="75.56" arrivalSpeed="7.96" duration="90.00" routeLength="669.33" waitingTime="0.00" waitingCount="0" stopTime="0.00" timeLoss="10.55" rerouteNo="0" devices="tripinfo_58" vType="DEFAULT_VEHTYPE" speedFactor="1.02" vaporized=""/>
    <tripinfo id="60" depart="184.00" departLane="279952229#0_0" departPos="5.10" departSpeed="0.00" departDelay="3.00" arrival="269.00" arrivalLane="-115602933#2_0" arrivalPos="75.56" arrivalSpeed="9.02" duration="85.00" routeLength="669.33" waitingTime="0.00" waitingCount="0" stopTime="0.00" timeLoss="10.14" rerouteNo="0" devices="tripinfo_60" vType="DEFAULT_VEHTYPE" speedFactor="1.08" vaporized=""/>
    <tripinfo id="26" depart="81.00" departLane="279952229#0_0" departPos="5.10" departSpeed="0.00" departDelay="2.00" arrival="280.00" arrivalLane="-115602933#2_0" arrivalPos="75.56" arrivalSpeed="6.58" duration="199.00" routeLength="1200.24" waitingTime="18.00" waitingCount="2" stopTime="0.00" timeLoss="40.70" rerouteNo="0" devices="tripinfo_26" vType="DEFAULT_VEHTYPE" speedFactor="0.92" vaporized=""/>
    <tripinfo id="31" depart="96.00" departLane="279952229#0_0" departPos="5.10" departSpeed="0.00" departDelay="5.00" arrival="282.00" arrivalLane="-115602933#2_0" arrivalPos="75.56" arrivalSpeed="8.34" duration="186.00" routeLength="1200.24" waitingTime="16.00" waitingCount="2" stopTime="0.00" timeLoss="59.79" rerouteNo="0" devices="tripinfo_31" vType="DEFAULT_VEHTYPE" speedFactor="1.15" vaporized=""/>
    <tripinfo id="63" depart="193.00" departLane="279952229#0_0" departPos="5.10" departSpeed="0.00" departDelay="6.00" arrival="286.00" arrivalLane="-115602933#2_0" arrivalPos="75.56" arrivalSpeed="7.70" duration="93.00" routeLength="669.33" waitingTime="0.00" waitingCount="0" stopTime="0.00" timeLoss="10.81" rerouteNo="0" devices="tripinfo_63" vType="DEFAULT_VEHTYPE" speedFactor="0.99" vaporized=""/>
    <tripinfo id="32" depart="99.00" departLane="279952229#0_0" departPos="5.10" departSpeed="0.00" departDelay="2.00" arrival="290.00" arrivalLane="-115602933#2_0" arrivalPos="75.56" arrivalSpeed="8.10" duration="191.00" routeLength="1200.24" waitingTime="21.00" waitingCount="2" stopTime="0.00" timeLoss="46.54" rerouteNo="0" devices="tripinfo_32" vType="DEFAULT_VEHTYPE" speedFactor="1.01" vaporized=""/>
    <tripinfo id="33" depart="102.00" departLane="279952229#0_0" departPos="5.10" departSpeed="0.00" departDelay="5.00" arrival="292.00" arrivalLane="-115602933#2_0" arrivalPos="75.56" arrivalSpeed="9.02" duration="190.00" routeLength="1200.24" waitingTime="20.00" waitingCount="2" stopTime="0.00" timeLoss="65.61" rerouteNo="0" devices="tripinfo_33" vType="DEFAULT_VEHTYPE" speedFactor="1.17" vaporized=""/>
    <tripinfo id="29" depart="90.00" departLane="279952229#0_0" departPos="5.10" departSpeed="0.00" departDelay="5.00" arrival="298.00" arrivalLane="-115602933#2_0" arrivalPos="75.56" arrivalSpeed="6.95" duration="208.00" routeLength="668.45" waitingTime="91.00" waitingCount="3" stopTime="0.00" timeLoss="121.22" rerouteNo="0" devices="tripinfo_29" vType="DEFAULT_VEHTYPE" speedFactor="0.93" vaporized=""/>
    <tripinfo id="65" depart="199.00" departLane="279952229#0_0" departPos="5.10" departSpeed="0.00" departDelay="6.00" arrival="303.00" arrivalLane="-115602933#2_0" arrivalPos="75.56" arrivalSpeed="6.06" duration="104.00" routeLength="669.33" waitingTime="0.00" waitingCount="0" stopTime="0.00" timeLoss="11.65" rerouteNo="0" devices="tripinfo_65" vType="DEFAULT_VEHTYPE" speedFactor="0.88" vaporized=""/>
    <tripinfo id="66" depart="202.00" departLane="279952229#0_0" departPos="5.10" departSpeed="0.00" departDelay="3.00" arrival="305.00" arrivalLane="-115602933#2_0" arrivalPos="75.56" arrivalSpeed="7.46" duration="103.00" routeLength="669.33" waitingTime="0.00" waitingCount="0" stopTime="0.00" timeLoss="13.52" rerouteNo="0" devices="tripinfo_66" vType="DEFAULT_VEHTYPE" speedFactor="0.91" vaporized=""/>
    <tripinfo id="68" depart="208.00" departLane="279952229#0_0" departPos="5.10" departSpeed="0.00" departDelay="3.00" arrival="307.00" arrivalLane="-115602933#2_0" arrivalPos="75.56" arrivalSpeed="8.54" duration="99.00" routeLength="669.33" waitingTime="0.00" waitingCount="0" stopTime="0.00" timeLoss="21.20" rerouteNo="0" devices="tripinfo_68" vType="DEFAULT_VEHTYPE" speedFactor="1.04" vaporized=""/>
    <tripinfo id="37" depart="114.00" departLane="279952229#0_0" departPos="5.10" departSpeed="0.00" departDelay="5.00" arrival="309.00" arrivalLane="-115602933#2_0" arrivalPos="75.56" arrivalSpeed="8.85" duration="195.00" routeLength="1200.24" waitingTime="26.00" waitingCount="3" stopTime="0.00" timeLoss="72.09" rerouteNo="0" devices="tripinfo_37" vType="DEFAULT_VEHTYPE" speedFactor="1.18" vaporized=""/>
    <tripinfo id="38" depart="117.00" departLane="279952229#0_0" departPos="5.10" departSpeed="0.00" departDelay="2.00" arrival="311.00" arrivalLane="-115602933#2_0" arrivalPos="75.56" arrivalSpeed="8.19" duration="194.00" routeLength="1200.24" waitingTime="25.00" waitingCount="4" stopTime="0.00" timeLoss="62.79" rerouteNo="0" devices="tripinfo_38" vType="DEFAULT_VEHTYPE" speedFactor="1.10" vaporized=""/>
    <tripinfo id="40" depart="123.00" departLane="279952229#0_0" departPos="5.10" departSpeed="0.00" departDelay="2.00" arrival="314.00" arrivalLane="-115602933#2_0" arrivalPos="75.56" arrivalSpeed="7.64" duration="191.00" routeLength="1200.24" waitingTime="14.00" waitingCount="3" stopTime="0.00" timeLoss="50.11" rerouteNo="0" devices="tripinfo_40" vType="DEFAULT_VEHTYPE" speedFactor="1.03" vaporized=""/>
    <tripinfo id="43" depart="132.00" departLane="279952229#0_0" departPos="5.10" departSpeed="0.00" departDelay="5.00" arrival="316.00" arrivalLane="-115602933#2_0" arrivalPos="75.56" arrivalSpeed="7.89" duration="184.00" routeLength="1200.24" waitingTime="10.00" waitingCount="2" stopTime="0.00" timeLoss="44.47" rerouteNo="0" devices="tripinfo_43" vType="DEFAULT_VEHTYPE" speedFactor="1.04" vaporized=""/>
    <tripinfo id="44" depart="135.00" departLane="279952229#0_0" departPos="5.10" departSpeed="0.00" departDelay="2.00" arrival="318.00" arrivalLane="-115602933#2_0" arrivalPos="75.56" arrivalSpeed="8.29" duration="183.00" routeLength="1200.24" waitingTime="9.00" waitingCount="2" stopTime="0.00" timeLoss="44.23" rerouteNo="0" devices="tripinfo_44" vType="DEFAULT_VEHTYPE" speedFactor="1.04" vaporized=""/>
    <tripinfo id="75" depart="229.00" departLane="279952229#0_0" departPos="5.10" departSpeed="0.00" departDelay="6.00" arrival="321.00" arrivalLane="-115602933#2_0" arrivalPos="75.56" arrivalSpeed="7.53" duration="92.00" routeLength="669.33" waitingTime="0.00" waitingCount="0" stopTime="0.00" timeLoss="9.86" rerouteNo="0" devices="tripinfo_75" vType="DEFAULT_VEHTYPE" speedFactor="0.98" vaporized=""/>
    <tripinfo id="76" depart="232.00" departLane="279952229#0_0" departPos="5.10" departSpeed="0.00" departDelay="3.00" arrival="324.00" arrivalLane="-115602933#2_0" arrivalPos="75.56" arrivalSpeed="7.51" duration="92.00" routeLength="669.33" waitingTime="0.00" waitingCount="0" stopTime="0.00" timeLoss="12.96" rerouteNo="0" devices="tripinfo_76" vType="DEFAULT_VEHTYPE" speedFactor="1.03" vaporized=""/>
    <tripinfo id="77" depart="235.00" departLane="279952229#0_0" departPos="5.10" departSpeed="0.00" departDelay="6.00" arrival="328.00" arrivalLane="-115602933#2_0" arrivalPos="75.56" arrivalSpeed="8.17" duration="93.00" routeLength="669.33" waitingTime="0.00" waitingCount="0" stopTime="0.00" timeLoss="10.46" rerouteNo="0" devices="tripinfo_77" vType="DEFAULT_VEHTYPE" speedFactor="0.98" vaporized=""/>
    <tripinfo id="78" depart="238.00" departLane="279952229#0_0" departPos="5.10" departSpeed="0.00" departDelay="3.00" arrival="331.00" arrivalLane="-115602933#2_0" arrivalPos="75.56" arrivalSpeed="8.11" duration="93.00" routeLength="669.33" waitingTime="0.00" waitingCount="0" stopTime="0.00" timeLoss="11.77" rerouteNo="0" devices="tripinfo_78" vType="DEFAULT_VEHTYPE" speedFactor="1.01" vaporized=""/>
    <tripinfo id="47" depart="144.00" departLane="279952229#0_0" departPos="5.10" departSpeed="0.00" departDelay="5.00" arrival="338.00" arrivalLane="-115602933#2_0" arrivalPos="75.56" arrivalSpeed="7.48" duration="194.00" routeLength="1200.24" waitingTime="13.00" waitingCount="1" stopTime="0.00" timeLoss="32.77" rerouteNo="0" devices="tripinfo_47" vType="DEFAULT_VEHTYPE" speedFactor="0.90" vaporized=""/>
    <tripinfo id="51" depart="156.00" departLane="279952229#0_0" departPos="5.10" departSpeed="0.00" departDelay="5.00" arrival="340.00" arrivalLane="-115602933#2_0" arrivalPos="75.56" arrivalSpeed="9.33" duration="184.00" routeLength="1200.24" waitingTime="12.00" waitingCount="1" stopTime="0.00" timeLoss="59.34" rerouteNo="0" devices="tripinfo_51" vType="DEFAULT_VEHTYPE" speedFactor="1.17" vaporized=""/>
    <tripinfo id="52" depart="159.00" departLane="279952229#0_0" departPos="5.10" departSpeed="0.00" departDelay="2.00" arrival="342.00" arrivalLane="-115602933#2_0" arrivalPos="75.56" arrivalSpeed="8.12" duration="183.00" routeLength="1200.24" waitingTime="12.00" waitingCount="1" stopTime="0.00" timeLoss="39.95" rerouteNo="0" devices="tripinfo_52" vType="DEFAULT_VEHTYPE" speedFactor="1.02" vaporized=""/>
    <tripinfo id="35" depart="108.00" departLane="279952229#0_0" departPos="5.10" departSpeed="0.00" departDelay="5.00" arrival="344.00" arrivalLane="-115602933#2_0" arrivalPos="75.56" arrivalSpeed="8.07" duration="236.00" routeLength="668.45" waitingTime="124.00" waitingCount="4" stopTime="0.00" timeLoss="156.79" rerouteNo="0" devices="tripinfo_35" vType="DEFAULT_VEHTYPE" speedFactor="1.02" vaporized=""/>
    <tripinfo id="83" depart="253.00" departLane="279952229#0_0" departPos="5.10" departSpeed="0.00" departDelay="6.00" arrival="348.00" arrivalLane="-115602933#2_0" arrivalPos="75.56" arrivalSpeed="7.67" duration="95.00" routeLength="669.33" waitingTime="0.00" waitingCount="0" stopTime="0.00" timeLoss="10.66" rerouteNo="0" devices="tripinfo_83" vType="DEFAULT_VEHTYPE" speedFactor="0.97" vaporized=""/>
    <tripinfo id="87" depart="265.00" departLane="279952229#0_0" departPos="5.10" departSpeed="0.00" departDelay="6.00" arrival="353.00" arrivalLane="-115602933#2_0" arrivalPos="75.56" arrivalSpeed="8.07" duration="88.00" routeLength="669.33" waitingTime="0.00" waitingCount="0" stopTime="0.00" timeLoss="10.26" rerouteNo="0" devices="tripinfo_87" vType="DEFAULT_VEHTYPE" speedFactor="1.04" vaporized=""/>
    <tripinfo id="88" depart="268.00" departLane="279952229#0_0" departPos="5.10" departSpeed="0.00" departDelay="3.00" arrival="360.00" arrivalLane="-115602933#2_0" arrivalPos="75.56" arrivalSpeed="8.04" duration="92.00" routeLength="669.33" waitingTime="0.00" waitingCount="0" stopTime="0.00" timeLoss="10.83" rerouteNo="0" devices="tripinfo_88" vType="DEFAULT_VEHTYPE" speedFactor="1.01" vaporized=""/>
    <tripinfo id="89" depart="271.00" departLane="279952229#0_0" departPos="5.10" departSpeed="0.00" departDelay="6.00" arrival="362.00" arrivalLane="-115602933#2_0" arrivalPos="75.56" arrivalSpeed="7.60" duration="91.00" routeLength="669.33" waitingTime="0.00" waitingCount="0" stopTime="0.00" timeLoss="11.44" rerouteNo="0" devices="tripinfo_89" vType="DEFAULT_VEHTYPE" speedFactor="1.02" vaporized=""/>
    <tripinfo id="90" depart="274.00" departLane="279952229#0_0" departPos="5.10" departSpeed="0.00" departDelay="3.00" arrival="366.00" arrivalLane="-115602933#2_0" arrivalPos="75.56" arrivalSpeed="7.43" duration="92.00" routeLength="669.33" waitingTime="0.00" waitingCount="0" stopTime="0.00" timeLoss="11.67" rerouteNo="0" devices="tripinfo_90" vType="DEFAULT_VEHTYPE" speedFactor="1.02" vaporized=""/>
    <tripinfo id="54" depart="165.00" departLane="279952229#0_0" departPos="5.10" departSpeed="0.00" departDelay="2.00" arrival="369.00" arrivalLane="-115602933#2_0" arrivalPos="75.56" arrivalSpeed="7.96" duration="204.00" routeLength="1200.24" waitingTime="35.00" waitingCount="2" stopTime="0.00" timeLoss="59.06" rerouteNo="0" devices="tripinfo_54" vType="DEFAULT_VEHTYPE" speedFactor="1.00" vaporized=""/>
    <tripinfo id="39" depart="120.00" departLane="279952229#0_0" departPos="5.10" departSpeed="0.00" departDelay="5.00" arrival="375.00" arrivalLane="-115602933#2_0" arrivalPos="75.56" arrivalSpeed="7.47" duration="255.00" routeLength="668.45" waitingTime="127.00" waitingCount="5" stopTime="0.00" timeLoss="165.23" rerouteNo="0" devices="tripinfo_39" vType="DEFAULT_VEHTYPE" speedFactor="0.90" vaporized=""/>
    <tripinfo id="91" depart="277.00" departLane="279952229#0_0" departPos="5.10" departSpeed="0.00" departDelay="6.00" arrival="380.00" arrivalLane="-115602933#2_0" arrivalPos="75.56" arrivalSpeed="7.19" duration="103.00" routeLength="669.33" waitingTime="0.00" waitingCount="0" stopTime="0.00" timeLoss="11.70" rerouteNo="0" devices="tripinfo_91" vType="DEFAULT_VEHTYPE" speedFactor="0.89" vaporized=""/>
    <tripinfo id="96" depart="293.00" departLane="279952229#0_0" departPos="5.10" departSpeed="0.00" departDelay="4.00" arrival="384.00" arrivalLane="-115602933#2_0" arrivalPos="75.56" arrivalSpeed="7.14" duration="91.00" routeLength="669.33" waitingTime="0.00" waitingCount="0" stopTime="0.00" timeLoss="10.29" rerouteNo="0" devices="tripinfo_96" vType="DEFAULT_VEHTYPE" speedFactor="1.01" vaporized=""/>
    <tripinfo id="42" depart="128.00" departLane="279952229#0_0" departPos="5.10" departSpeed="0.00" departDelay="1.00" arrival="387.00" arrivalLane="-115602933#2_0" arrivalPos="75.56" arrivalSpeed="8.32" duration="259.00" routeLength="668.45" waitingTime="139.00" waitingCount="6" stopTime="0.00" timeLoss="184.34" rerouteNo="0" devices="tripinfo_42" vType="DEFAULT_VEHTYPE" speedFactor="1.09" vaporized=""/>