<?xml version="1.0" encoding="UTF-8"?>

<!-- generated on 2024-01-22 18:44:08 by Eclipse SUMO sumo Version 1.19.0
<configuration xmlns:xsi="http://www.w3.org/2001/XMLSchema-instance" xsi:noNamespaceSchemaLocation="http://sumo.dlr.de/xsd/sumoConfiguration.xsd">

    <input>
        <net-file value="Network_and_config/csomor1.net.xml"/>
    </input>

    <output>
        <summary-output value="Network_and_config/summary.xml"/>
        <tripinfo-output value="Network_and_config/tripinfo.xml"/>
    </output>

    <traci_server>
        <remote-port value="52792"/>
    </traci_server>

</configuration>
-->

<tripinfos xmlns:xsi="http://www.w3.org/2001/XMLSchema-instance" xsi:noNamespaceSchemaLocation="http://sumo.dlr.de/xsd/tripinfo_file.xsd">
    <tripinfo id="0" depart="1.00" departLane="279952229#0_0" departPos="5.10" departSpeed="0.00" departDelay="0.00" arrival="444.00" arrivalLane="-115602933#2_0" arrivalPos="75.56" arrivalSpeed="7.65" duration="443.00" routeLength="3369.19" waitingTime="20.00" waitingCount="2" stopTime="0.00" timeLoss="81.51" rerouteNo="0" devices="tripinfo_0" vType="DEFAULT_VEHTYPE" speedFactor="1.06" vaporized=""/>
    <tripinfo id="2" depart="7.00" departLane="279952229#0_0" departPos="5.10" departSpeed="0.00" departDelay="0.00" arrival="461.00" arrivalLane="-115602933#2_0" arrivalPos="75.56" arrivalSpeed="8.05" duration="454.00" routeLength="3369.19" waitingTime="14.00" waitingCount="1" stopTime="0.00" timeLoss="74.69" rerouteNo="0" devices="tripinfo_2" vType="DEFAULT_VEHTYPE" speedFactor="1.01" vaporized=""/>
    <tripinfo id="6" depart="19.00" departLane="279952229#0_0" departPos="5.10" departSpeed="0.00" departDelay="0.00" arrival="463.00" arrivalLane="-115602933#2_0" arrivalPos="75.56" arrivalSpeed="7.91" duration="444.00" routeLength="3369.19" waitingTime="3.00" waitingCount="1" stopTime="0.00" timeLoss="76.89" rerouteNo="0" devices="tripinfo_6" vType="DEFAULT_VEHTYPE" speedFactor="1.05" vaporized=""/>
    <tripinfo id="8" depart="25.00" departLane="279952229#0_0" departPos="5.10" departSpeed="0.00" departDelay="0.00" arrival="937.00" arrivalLane="-115602933#2_0" arrivalPos="75.56" arrivalSpeed="6.63" duration="912.00" routeLength="3339.24" waitingTime="434.00" waitingCount="4" stopTime="0.00" timeLoss="504.34" rerouteNo="0" devices="tripinfo_8" vType="DEFAULT_VEHTYPE" speedFactor="0.94" vaporized=""/>
    <tripinfo id="10" depart="31.00" departLane="279952229#0_0" departPos="5.10" departSpeed="0.00" departDelay="0.00" arrival="939.00" arrivalLane="-115602933#2_0" arrivalPos="75.56" arrivalSpeed="8.04" duration="908.00" routeLength="3369.19" waitingTime="434.00" waitingCount="5" stopTime="0.00" timeLoss="556.76" rerouteNo="0" devices="tripinfo_10" vType="DEFAULT_VEHTYPE" speedFactor="1.09" vaporized=""/>
    <tripinfo id="14" depart="43.00" departLane="279952229#0_0" departPos="5.10" departSpeed="0.00" departDelay="0.00" arrival="941.00" arrivalLane="-115602933#2_0" arrivalPos="75.56" arrivalSpeed="7.78" duration="898.00" routeLength="3369.19" waitingTime="421.00" waitingCount="4" stopTime="0.00" timeLoss="511.30" rerouteNo="0" devices="tripinfo_14" vType="DEFAULT_VEHTYPE" speedFactor="0.99" vaporized=""/>
    <tripinfo id="84" depart="253.00" departLane="279952229#0_0" departPos="5.10" departSpeed="0.00" departDelay="0.00" arrival="1601.00" arrivalLane="-115602933#2_0" arrivalPos="75.56" arrivalSpeed="8.56" duration="1348.00" routeLength="3284.91" waitingTime="600.00" waitingCount="2" stopTime="0.00" timeLoss="648.63" rerouteNo="0" devices="tripinfo_84" vType="DEFAULT_VEHTYPE" speedFactor="1.15" vaporized=""/>
    <tripinfo id="62" depart="187.00" departLane="279952229#0_0" departPos="5.10" departSpeed="0.00" departDelay="0.00" arrival="1660.00" arrivalLane="-115602933#2_0" arrivalPos="75.56" arrivalSpeed="8.19" duration="1473.00" routeLength="3316.31" waitingTime="666.00" waitingCount="5" stopTime="0.00" timeLoss="729.02" rerouteNo="0" devices="tripinfo_62" vType="DEFAULT_VEHTYPE" speedFactor="1.02" vaporized=""/>
    <tripinfo id="46" depart="139.00" departLane="279952229#0_0" departPos="5.10" departSpeed="0.00" departDelay="0.00" arrival="1795.00" arrivalLane="-115602933#2_0" arrivalPos="75.56" arrivalSpeed="7.76" duration="1656.00" routeLength="7787.57" waitingTime="713.00" waitingCount="7" stopTime="0.00" timeLoss="890.84" rerouteNo="0" devices="tripinfo_46" vType="DEFAULT_VEHTYPE" speedFactor="1.00" vaporized=""/>
    <tripinfo id="66" depart="199.00" departLane="279952229#0_0" departPos="5.10" departSpeed="0.00" departDelay="0.00" arrival="2225.00" arrivalLane="-115602933#2_0" arrivalPos="75.56" arrivalSpeed="6.51" duration="2026.00" routeLength="3329.29" waitingTime="1240.00" waitingCount="8" stopTime="0.00" timeLoss="1323.15" rerouteNo="0" devices="tripinfo_66" vType="DEFAULT_VEHTYPE" speedFactor="0.91" vaporized=""/>
    <tripinfo id="12" depart="37.00" departLane="279952229#0_0" departPos="5.10" departSpeed="0.00" departDelay="0.00" arrival="2271.00" arrivalLane="-115602933#2_0" arrivalPos="75.56" arrivalSpeed="8.57" duration="2234.00" routeLength="7818.15" waitingTime="1228.00" waitingCount="5" stopTime="0.00" timeLoss="1352.00" rerouteNo="0" devices="tripinfo_12" vType="DEFAULT_VEHTYPE" speedFactor="1.05" vaporized=""/>
    <tripinfo id="72" depart="219.00" departLane="279952229#0_0" departPos="5.10" departSpeed="0.00" departDelay="2.00" arrival="2823.00" arrivalLane="-115602933#2_0" arrivalPos="75.56" arrivalSpeed="6.98" duration="2604.00" routeLength="3344.82" waitingTime="1866.00" waitingCount="13" stopTime="0.00" timeLoss="1979.27" rerouteNo="0" devices="tripinfo_72" vType="DEFAULT_VEHTYPE" speedFactor="0.94" vaporized=""/>
    <tripinfo id="94" depart="283.00" departLane="279952229#0_0" departPos="5.10" departSpeed="0.00" departDelay="0.00" arrival="2825.00" arrivalLane="-115602933#2_0" arrivalPos="75.56" arrivalSpeed="8.84" duration="2542.00" routeLength="3284.91" waitingTime="1690.00" waitingCount="9" stopTime="0.00" timeLoss="1826.45" rerouteNo="0" devices="tripinfo_94" vType="DEFAULT_VEHTYPE" speedFactor="1.09" vaporized=""/>
    <tripinfo id="166" depart="499.00" departLane="279952229#0_0" departPos="5.10" departSpeed="0.00" departDelay="0.00" arrival="2827.00" arrivalLane="-115602933#2_0" arrivalPos="75.56" arrivalSpeed="7.17" duration="2328.00" routeLength="3268.43" waitingTime="1015.00" waitingCount="7" stopTime="0.00" timeLoss="1100.19" rerouteNo="0" devices="tripinfo_166" vType="DEFAULT_VEHTYPE" speedFactor="1.00" vaporized=""/>
    <tripinfo id="98" depart="295.00" departLane="279952229#0_0" departPos="5.10" departSpeed="0.00" departDelay="0.00" arrival="2829.00" arrivalLane="-115602933#2_0" arrivalPos="75.56" arrivalSpeed="8.70" duration="2534.00" routeLength="3314.86" waitingTime="1814.00" waitingCount="9" stopTime="0.00" timeLoss="1961.52" rerouteNo="0" devices="tripinfo_98" vType="DEFAULT_VEHTYPE" speedFactor="1.12" vaporized=""/>
    <tripinfo id="58" depart="175.00" departLane="279952229#0_0" departPos="5.10" departSpeed="0.00" departDelay="0.00" arrival="2832.00" arrivalLane="-115602933#2_0" arrivalPos="75.56" arrivalSpeed="7.77" duration="2657.00" routeLength="3333.96" waitingTime="1849.00" waitingCount="11" stopTime="0.00" timeLoss="1981.17" rerouteNo="0" devices="tripinfo_58" vType="DEFAULT_VEHTYPE" speedFactor="1.02" vaporized=""/>
    <tripinfo id="100" depart="301.00" departLane="279952229#0_0" departPos="5.10" departSpeed="0.00" departDelay="0.00" arrival="3083.00" arrivalLane="-115602933#2_0" arrivalPos="75.56" arrivalSpeed="8.77" duration="2782.00" routeLength="3284.91" waitingTime="1973.00" waitingCount="8" stopTime="0.00" timeLoss="2060.01" rerouteNo="0" devices="tripinfo_100" vType="DEFAULT_VEHTYPE" speedFactor="1.06" vaporized=""/>
    <tripinfo id="28" depart="85.00" departLane="279952229#0_0" departPos="5.10" departSpeed="0.00" departDelay="0.00" arrival="3178.00" arrivalLane="-115602933#2_0" arrivalPos="75.56" arrivalSpeed="9.03" duration="3093.00" routeLength="7803.83" waitingTime="1910.00" waitingCount="13" stopTime="0.00" timeLoss="2258.05" rerouteNo="0" devices="tripinfo_28" vType="DEFAULT_VEHTYPE" speedFactor="1.13" vaporized=""/>
    <tripinfo id="24" depart="73.00" departLane="279952229#0_0" departPos="5.10" departSpeed="0.00" departDelay="0.00" arrival="3239.00" arrivalLane="-115602933#2_0" arrivalPos="75.56" arrivalSpeed="6.83" duration="3166.00" routeLength="7847.84" waitingTime="1936.00" waitingCount="11" stopTime="0.00" timeLoss="2097.76" rerouteNo="0" devices="tripinfo_24" vType="DEFAULT_VEHTYPE" speedFactor="0.83" vaporized=""/>
    <tripinfo id="106" depart="319.00" departLane="279952229#0_0" departPos="5.10" departSpeed="0.00" departDelay="0.00" arrival="3546.00" arrivalLane="-115602933#2_0" arrivalPos="75.56" arrivalSpeed="6.35" duration="3227.00" routeLength="7787.57" waitingTime="2326.00" waitingCount="11" stopTime="0.00" timeLoss="2497.03" rerouteNo="0" devices="tripinfo_106" vType="DEFAULT_VEHTYPE" speedFactor="1.01" vaporized=""/>
    <tripinfo id="18" depart="55.00" departLane="279952229#0_0" departPos="5.10" departSpeed="0.00" departDelay="0.00" arrival="3548.00" arrivalLane="-115602933#2_0" arrivalPos="75.56" arrivalSpeed="6.71" duration="3493.00" routeLength="7833.52" waitingTime="2309.00" waitingCount="16" stopTime="0.00" timeLoss="2532.63" rerouteNo="0" devices="tripinfo_18" vType="DEFAULT_VEHTYPE" speedFactor="0.94" vaporized=""/>
</tripinfos>
