<?xml version="1.0" encoding="UTF-8"?>

<!-- generated on 2025-03-25 10:01:34 by Eclipse SUMO sumo Version 1.20.0
<configuration xmlns:xsi="http://www.w3.org/2001/XMLSchema-instance" xsi:noNamespaceSchemaLocation="http://sumo.dlr.de/xsd/sumoConfiguration.xsd">

    <input>
        <net-file value="/Users/michalhoffmann/Desktop/studia/tutor/2year/RouteRL/routerl/environment/../networks/two_route_yield/two_route_yield.net.xml"/>
        <route-files value="/Users/michalhoffmann/Desktop/studia/tutor/2year/RouteRL/routerl/environment/../networks/two_route_yield/route.rou.xml"/>
        <additional-files value="/Users/michalhoffmann/Desktop/studia/tutor/2year/RouteRL/routerl/environment/../networks/two_route_yield/det.add.xml"/>
    </input>

    <output>
        <fcd-output value="/Users/michalhoffmann/Desktop/studia/tutor/2year/RouteRL/routerl/environment/../networks/two_route_yield/fcd.xml"/>
        <summary-output value="/Users/michalhoffmann/Desktop/studia/tutor/2year/RouteRL/routerl/environment/../networks/two_route_yield/summary.xml"/>
        <tripinfo-output value="logs_stats.log"/>
        <statistic-output value="logs_stats.xml"/>
    </output>

    <processing>
        <time-to-teleport value="-1"/>
    </processing>

    <report>
        <no-step-log value="true"/>
    </report>

    <traci_server>
        <remote-port value="53037"/>
    </traci_server>

    <random_number>
        <seed value="42"/>
    </random_number>

</configuration>
-->

<tripinfos xmlns:xsi="http://www.w3.org/2001/XMLSchema-instance" xsi:noNamespaceSchemaLocation="http://sumo.dlr.de/xsd/tripinfo_file.xsd">
    <tripinfo id="4" depart="31.00" departLane="E0_0" departPos="5.10" departSpeed="0.00" departDelay="0.00" arrival="69.00" arrivalLane="E2_0" arrivalPos="92.80" arrivalSpeed="11.93" duration="38.00" routeLength="314.32" waitingTime="0.00" waitingCount="0" stopTime="0.00" timeLoss="11.45" rerouteNo="0" devices="tripinfo_4 fcd_4" vType="Human" speedFactor="0.95" vaporized=""/>
    <tripinfo id="60" depart="39.00" departLane="E0_0" departPos="5.10" departSpeed="0.00" departDelay="0.00" arrival="73.00" arrivalLane="E2_0" arrivalPos="92.80" arrivalSpeed="14.39" duration="34.00" routeLength="314.32" waitingTime="0.00" waitingCount="0" stopTime="0.00" timeLoss="10.19" rerouteNo="0" devices="tripinfo_60 fcd_60" vType="Human" speedFactor="1.07" vaporized=""/>
    <tripinfo id="52" depart="46.00" departLane="E0_0" departPos="5.10" departSpeed="0.00" departDelay="0.00" arrival="79.00" arrivalLane="E2_0" arrivalPos="92.80" arrivalSpeed="15.92" duration="33.00" routeLength="314.32" waitingTime="0.00" waitingCount="0" stopTime="0.00" timeLoss="11.40" rerouteNo="0" devices="tripinfo_52 fcd_52" vType="Human" speedFactor="1.16" vaporized=""/>
    <tripinfo id="5" depart="50.00" departLane="E0_0" departPos="5.10" departSpeed="0.00" departDelay="0.00" arrival="90.00" arrivalLane="E2_0" arrivalPos="92.80" arrivalSpeed="12.18" duration="40.00" routeLength="314.32" waitingTime="0.00" waitingCount="0" stopTime="0.00" timeLoss="11.06" rerouteNo="0" devices="tripinfo_5 fcd_5" vType="Human" speedFactor="0.88" vaporized=""/>
    <tripinfo id="1" depart="58.00" departLane="E0_0" departPos="5.10" departSpeed="0.00" departDelay="0.00" arrival="97.00" arrivalLane="E2_0" arrivalPos="92.80" arrivalSpeed="12.89" duration="39.00" routeLength="314.32" waitingTime="0.00" waitingCount="0" stopTime="0.00" timeLoss="11.36" rerouteNo="0" devices="tripinfo_1 fcd_1" vType="Human" speedFactor="0.93" vaporized=""/>
    <tripinfo id="17" depart="61.00" departLane="E0_0" departPos="5.10" departSpeed="0.00" departDelay="0.00" arrival="99.00" arrivalLane="E2_0" arrivalPos="92.80" arrivalSpeed="14.31" duration="38.00" routeLength="314.32" waitingTime="0.00" waitingCount="0" stopTime="0.00" timeLoss="15.37" rerouteNo="0" devices="tripinfo_17 fcd_17" vType="Human" speedFactor="1.08" vaporized=""/>
    <tripinfo id="9" depart="64.00" departLane="E0_0" departPos="5.10" departSpeed="0.00" departDelay="0.00" arrival="103.00" arrivalLane="E2_0" arrivalPos="92.80" arrivalSpeed="13.78" duration="39.00" routeLength="314.32" waitingTime="0.00" waitingCount="0" stopTime="0.00" timeLoss="14.39" rerouteNo="0" devices="tripinfo_9 fcd_9" vType="Human" speedFactor="1.03" vaporized=""/>
    <tripinfo id="15" depart="67.00" departLane="E0_0" departPos="5.10" departSpeed="0.00" departDelay="3.00" arrival="105.00" arrivalLane="E2_0" arrivalPos="92.80" arrivalSpeed="15.24" duration="38.00" routeLength="314.32" waitingTime="0.00" waitingCount="0" stopTime="0.00" timeLoss="15.69" rerouteNo="0" devices="tripinfo_15 fcd_15" vType="Human" speedFactor="1.13" vaporized=""/>
    <tripinfo id="37" depart="70.00" departLane="E0_0" departPos="5.10" departSpeed="0.00" departDelay="6.00" arrival="111.00" arrivalLane="E2_0" arrivalPos="92.80" arrivalSpeed="11.06" duration="41.00" routeLength="314.32" waitingTime="0.00" waitingCount="0" stopTime="0.00" timeLoss="12.12" rerouteNo="0" devices="tripinfo_37 fcd_37" vType="Human" speedFactor="0.88" vaporized=""/>
    <tripinfo id="58" depart="73.00" departLane="E0_0" departPos="5.10" departSpeed="0.00" departDelay="9.00" arrival="116.00" arrivalLane="E2_0" arrivalPos="92.80" arrivalSpeed="11.51" duration="43.00" routeLength="314.32" waitingTime="0.00" waitingCount="0" stopTime="0.00" timeLoss="12.96" rerouteNo="0" devices="tripinfo_58 fcd_58" vType="Human" speedFactor="0.84" vaporized=""/>
    <tripinfo id="33" depart="76.00" departLane="E0_0" departPos="5.10" departSpeed="0.00" departDelay="11.00" arrival="118.00" arrivalLane="E2_0" arrivalPos="92.80" arrivalSpeed="13.02" duration="42.00" routeLength="314.32" waitingTime="0.00" waitingCount="0" stopTime="0.00" timeLoss="16.50" rerouteNo="0" devices="tripinfo_33 fcd_33" vType="Human" speedFactor="1.00" vaporized=""/>
    <tripinfo id="38" depart="79.00" departLane="E0_0" departPos="5.10" departSpeed="0.00" departDelay="14.00" arrival="121.00" arrivalLane="E2_0" arrivalPos="92.80" arrivalSpeed="13.60" duration="42.00" routeLength="314.32" waitingTime="0.00" waitingCount="0" stopTime="0.00" timeLoss="16.93" rerouteNo="0" devices="tripinfo_38 fcd_38" vType="Human" speedFactor="0.99" vaporized=""/>
    <tripinfo id="21" depart="82.00" departLane="E0_0" departPos="5.10" departSpeed="0.00" departDelay="13.00" arrival="127.00" arrivalLane="E2_0" arrivalPos="92.80" arrivalSpeed="11.23" duration="45.00" routeLength="314.32" waitingTime="0.00" waitingCount="0" stopTime="0.00" timeLoss="13.43" rerouteNo="0" devices="tripinfo_21 fcd_21" vType="Human" speedFactor="0.82" vaporized=""/>
    <tripinfo id="42" depart="85.00" departLane="E0_0" departPos="5.10" departSpeed="0.00" departDelay="15.00" arrival="128.00" arrivalLane="E2_0" arrivalPos="92.80" arrivalSpeed="14.01" duration="43.00" routeLength="314.32" waitingTime="0.00" waitingCount="0" stopTime="0.00" timeLoss="21.38" rerouteNo="0" devices="tripinfo_42 fcd_42" vType="Human" speedFactor="1.16" vaporized=""/>
    <tripinfo id="55" depart="88.00" departLane="E0_0" departPos="5.10" departSpeed="0.00" departDelay="18.00" arrival="132.00" arrivalLane="E2_0" arrivalPos="92.80" arrivalSpeed="12.94" duration="44.00" routeLength="314.32" waitingTime="0.00" waitingCount="0" stopTime="0.00" timeLoss="16.40" rerouteNo="0" devices="tripinfo_55 fcd_55" vType="Human" speedFactor="0.94" vaporized=""/>
    <tripinfo id="32" depart="91.00" departLane="E0_0" departPos="5.10" departSpeed="0.00" departDelay="17.00" arrival="136.00" arrivalLane="E2_0" arrivalPos="92.80" arrivalSpeed="12.89" duration="45.00" routeLength="314.32" waitingTime="0.00" waitingCount="0" stopTime="0.00" timeLoss="19.44" rerouteNo="0" devices="tripinfo_32 fcd_32" vType="Human" speedFactor="0.99" vaporized=""/>
    <tripinfo id="54" depart="94.00" departLane="E0_0" departPos="5.10" departSpeed="0.00" departDelay="19.00" arrival="138.00" arrivalLane="E2_0" arrivalPos="92.80" arrivalSpeed="14.82" duration="44.00" routeLength="314.32" waitingTime="0.00" waitingCount="0" stopTime="0.00" timeLoss="20.79" rerouteNo="0" devices="tripinfo_54 fcd_54" vType="Human" speedFactor="1.13" vaporized=""/>
    <tripinfo id="67" depart="97.00" departLane="E0_0" departPos="5.10" departSpeed="0.00" departDelay="21.00" arrival="144.00" arrivalLane="E2_0" arrivalPos="92.80" arrivalSpeed="12.15" duration="47.00" routeLength="314.32" waitingTime="0.00" waitingCount="0" stopTime="0.00" timeLoss="17.75" rerouteNo="0" devices="tripinfo_67 fcd_67" vType="Human" speedFactor="0.88" vaporized=""/>
    <tripinfo id="24" depart="100.00" departLane="E0_0" departPos="5.10" departSpeed="0.00" departDelay="23.00" arrival="147.00" arrivalLane="E2_0" arrivalPos="92.80" arrivalSpeed="13.48" duration="47.00" routeLength="314.32" waitingTime="0.00" waitingCount="0" stopTime="0.00" timeLoss="21.12" rerouteNo="0" devices="tripinfo_24 fcd_24" vType="Human" speedFactor="1.00" vaporized=""/>
    <tripinfo id="31" depart="103.00" departLane="E0_0" departPos="5.10" departSpeed="0.00" departDelay="26.00" arrival="149.00" arrivalLane="E2_0" arrivalPos="92.80" arrivalSpeed="16.95" duration="46.00" routeLength="314.32" waitingTime="0.00" waitingCount="0" stopTime="0.00" timeLoss="25.14" rerouteNo="0" devices="tripinfo_31 fcd_31" vType="Human" speedFactor="1.24" vaporized=""/>
    <tripinfo id="25" depart="106.00" departLane="E0_0" departPos="5.10" departSpeed="0.00" departDelay="27.00" arrival="152.00" arrivalLane="E2_0" arrivalPos="92.80" arrivalSpeed="14.76" duration="46.00" routeLength="314.32" waitingTime="0.00" waitingCount="0" stopTime="0.00" timeLoss="23.73" rerouteNo="0" devices="tripinfo_25 fcd_25" vType="Human" speedFactor="1.10" vaporized=""/>
    <tripinfo id="61" depart="109.00" departLane="E0_0" departPos="5.10" departSpeed="0.00" departDelay="30.00" arrival="158.00" arrivalLane="E2_0" arrivalPos="92.80" arrivalSpeed="11.90" duration="49.00" routeLength="314.32" waitingTime="0.00" waitingCount="0" stopTime="0.00" timeLoss="19.31" rerouteNo="0" devices="tripinfo_61 fcd_61" vType="Human" speedFactor="0.87" vaporized=""/>
    <tripinfo id="66" depart="112.00" departLane="E0_0" departPos="5.10" departSpeed="0.00" departDelay="33.00" arrival="160.00" arrivalLane="E2_0" arrivalPos="92.80" arrivalSpeed="13.89" duration="48.00" routeLength="314.32" waitingTime="0.00" waitingCount="0" stopTime="0.00" timeLoss="23.04" rerouteNo="0" devices="tripinfo_66 fcd_66" vType="Human" speedFactor="1.05" vaporized=""/>
    <tripinfo id="7" depart="115.00" departLane="E0_0" departPos="5.10" departSpeed="0.00" departDelay="35.00" arrival="162.00" arrivalLane="E2_0" arrivalPos="92.80" arrivalSpeed="14.66" duration="47.00" routeLength="314.32" waitingTime="0.00" waitingCount="0" stopTime="0.00" timeLoss="24.89" rerouteNo="0" devices="tripinfo_7 fcd_7" vType="Human" speedFactor="1.12" vaporized=""/>
    <tripinfo id="53" depart="118.00" departLane="E0_0" departPos="5.10" departSpeed="0.00" departDelay="38.00" arrival="166.00" arrivalLane="E2_0" arrivalPos="92.80" arrivalSpeed="12.33" duration="48.00" routeLength="314.32" waitingTime="0.00" waitingCount="0" stopTime="0.00" timeLoss="22.10" rerouteNo="0" devices="tripinfo_53 fcd_53" vType="Human" speedFactor="0.97" vaporized=""/>
    <tripinfo id="56" depart="121.00" departLane="E0_0" departPos="5.10" departSpeed="0.00" departDelay="40.00" arrival="168.00" arrivalLane="E2_0" arrivalPos="92.80" arrivalSpeed="13.87" duration="47.00" routeLength="314.32" waitingTime="0.00" waitingCount="0" stopTime="0.00" timeLoss="23.77" rerouteNo="0" devices="tripinfo_56 fcd_56" vType="Human" speedFactor="1.08" vaporized=""/>
    <tripinfo id="20" depart="124.00" departLane="E0_0" departPos="5.10" departSpeed="0.00" departDelay="40.00" arrival="174.00" arrivalLane="E2_0" arrivalPos="92.80" arrivalSpeed="12.56" duration="50.00" routeLength="314.32" waitingTime="0.00" waitingCount="0" stopTime="0.00" timeLoss="22.19" rerouteNo="0" devices="tripinfo_20 fcd_20" vType="Human" speedFactor="0.94" vaporized=""/>
    <tripinfo id="69" depart="127.00" departLane="E0_0" departPos="5.10" departSpeed="0.00" departDelay="43.00" arrival="177.00" arrivalLane="E2_0" arrivalPos="92.80" arrivalSpeed="11.31" duration="50.00" routeLength="314.32" waitingTime="0.00" waitingCount="0" stopTime="0.00" timeLoss="21.16" rerouteNo="0" devices="tripinfo_69 fcd_69" vType="Human" speedFactor="0.91" vaporized=""/>
    <tripinfo id="23" depart="130.00" departLane="E0_0" departPos="5.10" departSpeed="0.00" departDelay="45.00" arrival="179.00" arrivalLane="E2_0" arrivalPos="92.80" arrivalSpeed="13.75" duration="49.00" routeLength="314.32" waitingTime="0.00" waitingCount="0" stopTime="0.00" timeLoss="24.28" rerouteNo="0" devices="tripinfo_23 fcd_23" vType="Human" speedFactor="1.00" vaporized=""/>
    <tripinfo id="36" depart="133.00" departLane="E0_0" departPos="5.10" departSpeed="0.00" departDelay="47.00" arrival="182.00" arrivalLane="E2_0" arrivalPos="92.80" arrivalSpeed="13.89" duration="49.00" routeLength="314.32" waitingTime="0.00" waitingCount="0" stopTime="0.00" timeLoss="26.40" rerouteNo="0" devices="tripinfo_36 fcd_36" vType="Human" speedFactor="1.08" vaporized=""/>
    <tripinfo id="19" depart="136.00" departLane="E0_0" departPos="5.10" departSpeed="0.00" departDelay="48.00" arrival="186.00" arrivalLane="E2_0" arrivalPos="92.80" arrivalSpeed="13.07" duration="50.00" routeLength="314.32" waitingTime="0.00" waitingCount="0" stopTime="0.00" timeLoss="23.11" rerouteNo="0" devices="tripinfo_19 fcd_19" vType="Human" speedFactor="0.94" vaporized=""/>
    <tripinfo id="8" depart="139.00" departLane="E0_0" departPos="5.10" departSpeed="0.00" departDelay="50.00" arrival="188.00" arrivalLane="E2_0" arrivalPos="92.80" arrivalSpeed="14.50" duration="49.00" routeLength="314.32" waitingTime="0.00" waitingCount="0" stopTime="0.00" timeLoss="25.06" rerouteNo="0" devices="tripinfo_8 fcd_8" vType="Human" speedFactor="1.08" vaporized=""/>
    <tripinfo id="12" depart="142.00" departLane="E0_0" departPos="5.10" departSpeed="0.00" departDelay="51.00" arrival="195.00" arrivalLane="E2_0" arrivalPos="92.80" arrivalSpeed="10.36" duration="53.00" routeLength="314.32" waitingTime="0.00" waitingCount="0" stopTime="0.00" timeLoss="21.59" rerouteNo="0" devices="tripinfo_12 fcd_12" vType="Human" speedFactor="0.82" vaporized=""/>
    <tripinfo id="49" depart="145.00" departLane="E0_0" departPos="5.10" departSpeed="0.00" departDelay="53.00" arrival="196.00" arrivalLane="E2_0" arrivalPos="92.80" arrivalSpeed="13.61" duration="51.00" routeLength="314.32" waitingTime="0.00" waitingCount="0" stopTime="0.00" timeLoss="26.69" rerouteNo="0" devices="tripinfo_49 fcd_49" vType="Human" speedFactor="1.01" vaporized=""/>
    <tripinfo id="6" depart="148.00" departLane="E0_0" departPos="5.10" departSpeed="0.00" departDelay="55.00" arrival="198.00" arrivalLane="E2_0" arrivalPos="92.80" arrivalSpeed="15.86" duration="50.00" routeLength="314.32" waitingTime="0.00" waitingCount="0" stopTime="0.00" timeLoss="28.07" rerouteNo="0" devices="tripinfo_6 fcd_6" vType="Human" speedFactor="1.15" vaporized=""/>
    <tripinfo id="44" depart="151.00" departLane="E0_0" departPos="5.10" departSpeed="0.00" departDelay="58.00" arrival="201.00" arrivalLane="E2_0" arrivalPos="92.80" arrivalSpeed="14.85" duration="50.00" routeLength="314.32" waitingTime="0.00" waitingCount="0" stopTime="0.00" timeLoss="27.98" rerouteNo="0" devices="tripinfo_44 fcd_44" vType="Human" speedFactor="1.15" vaporized=""/>
    <tripinfo id="62" depart="154.00" departLane="E0_0" departPos="5.10" departSpeed="0.00" departDelay="60.00" arrival="206.00" arrivalLane="E2_0" arrivalPos="92.80" arrivalSpeed="13.95" duration="52.00" routeLength="314.32" waitingTime="0.00" waitingCount="0" stopTime="0.00" timeLoss="27.61" rerouteNo="0" devices="tripinfo_62 fcd_62" vType="Human" speedFactor="1.06" vaporized=""/>
    <tripinfo id="43" depart="158.00" departLane="E0_0" departPos="5.10" departSpeed="0.00" departDelay="62.00" arrival="209.00" arrivalLane="E2_0" arrivalPos="92.80" arrivalSpeed="14.01" duration="51.00" routeLength="314.32" waitingTime="0.00" waitingCount="0" stopTime="0.00" timeLoss="27.50" rerouteNo="0" devices="tripinfo_43 fcd_43" vType="Human" speedFactor="1.07" vaporized=""/>
    <tripinfo id="45" depart="161.00" departLane="E0_0" departPos="5.10" departSpeed="0.00" departDelay="65.00" arrival="212.00" arrivalLane="E2_0" arrivalPos="92.80" arrivalSpeed="14.25" duration="51.00" routeLength="314.32" waitingTime="0.00" waitingCount="0" stopTime="0.00" timeLoss="26.85" rerouteNo="0" devices="tripinfo_45 fcd_45" vType="Human" speedFactor="1.06" vaporized=""/>
    <tripinfo id="47" depart="164.00" departLane="E0_0" departPos="5.10" departSpeed="0.00" departDelay="68.00" arrival="216.00" arrivalLane="E2_0" arrivalPos="92.80" arrivalSpeed="11.56" duration="52.00" routeLength="314.32" waitingTime="0.00" waitingCount="0" stopTime="0.00" timeLoss="24.13" rerouteNo="0" devices="tripinfo_47 fcd_47" vType="Human" speedFactor="0.92" vaporized=""/>
    <tripinfo id="50" depart="167.00" departLane="E0_0" departPos="5.10" departSpeed="0.00" departDelay="69.00" arrival="220.00" arrivalLane="E2_0" arrivalPos="92.80" arrivalSpeed="10.67" duration="53.00" routeLength="314.32" waitingTime="0.00" waitingCount="0" stopTime="0.00" timeLoss="23.67" rerouteNo="0" devices="tripinfo_50 fcd_50" vType="Human" speedFactor="0.86" vaporized=""/>
    <tripinfo id="0" depart="170.00" departLane="E0_0" departPos="5.10" departSpeed="0.00" departDelay="71.00" arrival="223.00" arrivalLane="E2_0" arrivalPos="92.80" arrivalSpeed="12.83" duration="53.00" routeLength="314.32" waitingTime="0.00" waitingCount="0" stopTime="0.00" timeLoss="26.20" rerouteNo="0" devices="tripinfo_0 fcd_0" vType="Human" speedFactor="0.95" vaporized=""/>
    <tripinfo id="27" depart="173.00" departLane="E0_0" departPos="5.10" departSpeed="0.00" departDelay="73.00" arrival="227.00" arrivalLane="E2_0" arrivalPos="92.80" arrivalSpeed="11.87" duration="54.00" routeLength="314.32" waitingTime="0.00" waitingCount="0" stopTime="0.00" timeLoss="27.33" rerouteNo="0" devices="tripinfo_27 fcd_27" vType="Human" speedFactor="0.94" vaporized=""/>
    <tripinfo id="16" depart="176.00" departLane="E0_0" departPos="5.10" departSpeed="0.00" departDelay="75.00" arrival="232.00" arrivalLane="E2_0" arrivalPos="92.80" arrivalSpeed="10.31" duration="56.00" routeLength="314.32" waitingTime="0.00" waitingCount="0" stopTime="0.00" timeLoss="25.25" rerouteNo="0" devices="tripinfo_16 fcd_16" vType="Human" speedFactor="0.83" vaporized=""/>
    <tripinfo id="28" depart="179.00" departLane="E0_0" departPos="5.10" departSpeed="0.00" departDelay="77.00" arrival="234.00" arrivalLane="E2_0" arrivalPos="92.80" arrivalSpeed="13.95" duration="55.00" routeLength="314.32" waitingTime="0.00" waitingCount="0" stopTime="0.00" timeLoss="31.68" rerouteNo="0" devices="tripinfo_28 fcd_28" vType="Human" speedFactor="1.12" vaporized=""/>
    <tripinfo id="29" depart="182.00" departLane="E0_0" departPos="5.10" departSpeed="0.00" departDelay="80.00" arrival="237.00" arrivalLane="E2_0" arrivalPos="92.80" arrivalSpeed="13.07" duration="55.00" routeLength="314.32" waitingTime="0.00" waitingCount="0" stopTime="0.00" timeLoss="29.05" rerouteNo="0" devices="tripinfo_29 fcd_29" vType="Human" speedFactor="0.99" vaporized=""/>
    <tripinfo id="14" depart="185.00" departLane="E0_0" departPos="5.10" departSpeed="0.00" departDelay="81.00" arrival="242.00" arrivalLane="E2_0" arrivalPos="92.80" arrivalSpeed="11.63" duration="57.00" routeLength="314.32" waitingTime="0.00" waitingCount="0" stopTime="0.00" timeLoss="27.50" rerouteNo="0" devices="tripinfo_14 fcd_14" vType="Human" speedFactor="0.85" vaporized=""/>
    <tripinfo id="26" depart="188.00" departLane="E0_0" departPos="5.10" departSpeed="0.00" departDelay="83.00" arrival="245.00" arrivalLane="E2_0" arrivalPos="92.80" arrivalSpeed="13.72" duration="57.00" routeLength="314.32" waitingTime="0.00" waitingCount="0" stopTime="0.00" timeLoss="32.24" rerouteNo="0" devices="tripinfo_26 fcd_26" vType="Human" speedFactor="1.03" vaporized=""/>
    <tripinfo id="41" depart="191.00" departLane="E0_0" departPos="5.10" departSpeed="0.00" departDelay="85.00" arrival="249.00" arrivalLane="E2_0" arrivalPos="92.80" arrivalSpeed="11.63" duration="58.00" routeLength="314.32" waitingTime="0.00" waitingCount="0" stopTime="0.00" timeLoss="29.97" rerouteNo="0" devices="tripinfo_41 fcd_41" vType="Human" speedFactor="0.92" vaporized=""/>
    <tripinfo id="63" depart="194.00" departLane="E0_0" departPos="5.10" departSpeed="0.00" departDelay="87.00" arrival="251.00" arrivalLane="E2_0" arrivalPos="92.80" arrivalSpeed="13.72" duration="57.00" routeLength="314.32" waitingTime="0.00" waitingCount="0" stopTime="0.00" timeLoss="32.76" rerouteNo="0" devices="tripinfo_63 fcd_63" vType="Human" speedFactor="1.04" vaporized=""/>
    <tripinfo id="34" depart="197.00" departLane="E0_0" departPos="5.10" departSpeed="0.00" departDelay="89.00" arrival="255.00" arrivalLane="E2_0" arrivalPos="92.80" arrivalSpeed="13.69" duration="58.00" routeLength="314.32" waitingTime="0.00" waitingCount="0" stopTime="0.00" timeLoss="32.84" rerouteNo="0" devices="tripinfo_34 fcd_34" vType="Human" speedFactor="1.02" vaporized=""/>
    <tripinfo id="51" depart="200.00" departLane="E0_0" departPos="5.10" departSpeed="0.00" departDelay="92.00" arrival="257.00" arrivalLane="E2_0" arrivalPos="92.80" arrivalSpeed="15.77" duration="57.00" routeLength="314.32" waitingTime="0.00" waitingCount="0" stopTime="0.00" timeLoss="34.19" rerouteNo="0" devices="tripinfo_51 fcd_51" vType="Human" speedFactor="1.14" vaporized=""/>
    <tripinfo id="39" depart="204.00" departLane="E0_0" departPos="5.10" departSpeed="0.00" departDelay="95.00" arrival="263.00" arrivalLane="E2_0" arrivalPos="92.80" arrivalSpeed="12.26" duration="59.00" routeLength="314.32" waitingTime="0.00" waitingCount="0" stopTime="0.00" timeLoss="31.07" rerouteNo="0" devices="tripinfo_39 fcd_39" vType="Human" speedFactor="0.91" vaporized=""/>
    <tripinfo id="48" depart="207.00" departLane="E0_0" departPos="5.10" departSpeed="0.00" departDelay="97.00" arrival="265.00" arrivalLane="E2_0" arrivalPos="92.80" arrivalSpeed="13.56" duration="58.00" routeLength="314.32" waitingTime="0.00" waitingCount="0" stopTime="0.00" timeLoss="33.12" rerouteNo="0" devices="tripinfo_48 fcd_48" vType="Human" speedFactor="1.05" vaporized=""/>
    <tripinfo id="64" depart="211.00" departLane="E0_0" departPos="5.10" departSpeed="0.00" departDelay="100.00" arrival="268.00" arrivalLane="E2_0" arrivalPos="92.80" arrivalSpeed="14.62" duration="57.00" routeLength="314.32" waitingTime="0.00" waitingCount="0" stopTime="0.00" timeLoss="33.31" rerouteNo="0" devices="tripinfo_64 fcd_64" vType="Human" speedFactor="1.10" vaporized=""/>
    <tripinfo id="2" depart="215.00" departLane="E0_0" departPos="5.10" departSpeed="0.00" departDelay="103.00" arrival="272.00" arrivalLane="E2_0" arrivalPos="92.80" arrivalSpeed="14.83" duration="57.00" routeLength="314.32" waitingTime="0.00" waitingCount="0" stopTime="0.00" timeLoss="32.96" rerouteNo="0" devices="tripinfo_2 fcd_2" vType="Human" speedFactor="1.07" vaporized=""/>
    <tripinfo id="40" depart="218.00" departLane="E0_0" departPos="5.10" departSpeed="0.00" departDelay="106.00" arrival="274.00" arrivalLane="E2_0" arrivalPos="92.80" arrivalSpeed="15.36" duration="56.00" routeLength="314.32" waitingTime="1.00" waitingCount="1" stopTime="0.00" timeLoss="33.07" rerouteNo="0" devices="tripinfo_40 fcd_40" vType="Human" speedFactor="1.14" vaporized=""/>
    <tripinfo id="11" depart="223.00" departLane="E0_0" departPos="5.10" departSpeed="0.00" departDelay="110.00" arrival="280.00" arrivalLane="E2_0" arrivalPos="92.80" arrivalSpeed="11.25" duration="57.00" routeLength="314.32" waitingTime="0.00" waitingCount="0" stopTime="0.00" timeLoss="28.02" rerouteNo="0" devices="tripinfo_11 fcd_11" vType="Human" speedFactor="0.87" vaporized=""/>
    <tripinfo id="65" depart="226.00" departLane="E0_0" departPos="5.10" departSpeed="0.00" departDelay="113.00" arrival="282.00" arrivalLane="E2_0" arrivalPos="92.80" arrivalSpeed="15.18" duration="56.00" routeLength="314.32" waitingTime="0.00" waitingCount="0" stopTime="0.00" timeLoss="33.83" rerouteNo="0" devices="tripinfo_65 fcd_65" vType="Human" speedFactor="1.21" vaporized=""/>
    <tripinfo id="68" depart="229.00" departLane="E0_0" departPos="5.10" departSpeed="0.00" departDelay="114.00" arrival="286.00" arrivalLane="E2_0" arrivalPos="92.80" arrivalSpeed="12.39" duration="57.00" routeLength="314.32" waitingTime="0.00" waitingCount="0" stopTime="0.00" timeLoss="30.47" rerouteNo="0" devices="tripinfo_68 fcd_68" vType="Human" speedFactor="0.97" vaporized=""/>
    <tripinfo id="10" depart="233.00" departLane="E0_0" departPos="5.10" departSpeed="0.00" departDelay="117.00" arrival="289.00" arrivalLane="E2_0" arrivalPos="92.80" arrivalSpeed="12.14" duration="56.00" routeLength="314.32" waitingTime="0.00" waitingCount="0" stopTime="0.00" timeLoss="30.07" rerouteNo="0" devices="tripinfo_10 fcd_10" vType="Human" speedFactor="0.94" vaporized=""/>
    <tripinfo id="18" depart="236.00" departLane="E0_0" departPos="5.10" departSpeed="0.00" departDelay="120.00" arrival="294.00" arrivalLane="E2_0" arrivalPos="92.80" arrivalSpeed="11.53" duration="58.00" routeLength="314.32" waitingTime="0.00" waitingCount="0" stopTime="0.00" timeLoss="29.67" rerouteNo="0" devices="tripinfo_18 fcd_18" vType="Human" speedFactor="0.88" vaporized=""/>
    <tripinfo id="46" depart="240.00" departLane="E0_0" departPos="5.10" departSpeed="0.00" departDelay="124.00" arrival="297.00" arrivalLane="E2_0" arrivalPos="92.80" arrivalSpeed="11.77" duration="57.00" routeLength="314.32" waitingTime="0.00" waitingCount="0" stopTime="0.00" timeLoss="28.01" rerouteNo="0" devices="tripinfo_46 fcd_46" vType="Human" speedFactor="0.88" vaporized=""/>
    <tripinfo id="3" depart="243.00" departLane="E0_0" departPos="5.10" departSpeed="0.00" departDelay="125.00" arrival="299.00" arrivalLane="E2_0" arrivalPos="92.80" arrivalSpeed="15.34" duration="56.00" routeLength="314.32" waitingTime="0.00" waitingCount="0" stopTime="0.00" timeLoss="33.43" rerouteNo="0" devices="tripinfo_3 fcd_3" vType="Human" speedFactor="1.16" vaporized=""/>
    <tripinfo id="59" depart="246.00" departLane="E0_0" departPos="5.10" departSpeed="0.00" departDelay="127.00" arrival="301.00" arrivalLane="E2_0" arrivalPos="92.80" arrivalSpeed="13.90" duration="55.00" routeLength="314.32" waitingTime="0.00" waitingCount="0" stopTime="0.00" timeLoss="31.96" rerouteNo="0" devices="tripinfo_59 fcd_59" vType="Human" speedFactor="1.08" vaporized=""/>
    <tripinfo id="13" depart="250.00" departLane="E0_0" departPos="5.10" departSpeed="0.00" departDelay="127.00" arrival="304.00" arrivalLane="E2_0" arrivalPos="92.80" arrivalSpeed="15.22" duration="54.00" routeLength="314.32" waitingTime="0.00" waitingCount="0" stopTime="0.00" timeLoss="30.88" rerouteNo="0" devices="tripinfo_13 fcd_13" vType="Human" speedFactor="1.10" vaporized=""/>
    <tripinfo id="35" depart="253.00" departLane="E0_0" departPos="5.10" departSpeed="0.00" departDelay="130.00" arrival="309.00" arrivalLane="E2_0" arrivalPos="92.80" arrivalSpeed="12.98" duration="56.00" routeLength="314.32" waitingTime="0.00" waitingCount="0" stopTime="0.00" timeLoss="29.03" rerouteNo="0" devices="tripinfo_35 fcd_35" vType="Human" speedFactor="0.94" vaporized=""/>
    <tripinfo id="22" depart="256.00" departLane="E0_0" departPos="5.10" departSpeed="0.00" departDelay="130.00" arrival="311.00" arrivalLane="E2_0" arrivalPos="92.80" arrivalSpeed="14.20" duration="55.00" routeLength="314.32" waitingTime="0.00" waitingCount="0" stopTime="0.00" timeLoss="30.71" rerouteNo="0" devices="tripinfo_22 fcd_22" vType="Human" speedFactor="1.05" vaporized=""/>
    <tripinfo id="57" depart="259.00" departLane="E0_0" departPos="5.10" departSpeed="0.00" departDelay="125.00" arrival="314.00" arrivalLane="E2_0" arrivalPos="92.80" arrivalSpeed="14.01" duration="55.00" routeLength="314.32" waitingTime="0.00" waitingCount="0" stopTime="0.00" timeLoss="32.03" rerouteNo="0" devices="tripinfo_57 fcd_57" vType="Human" speedFactor="1.09" vaporized=""/>
    <tripinfo id="30" depart="263.00" departLane="E0_0" departPos="5.10" departSpeed="0.00" departDelay="109.00" arrival="317.00" arrivalLane="E2_0" arrivalPos="92.80" arrivalSpeed="13.59" duration="54.00" routeLength="314.32" waitingTime="0.00" waitingCount="0" stopTime="0.00" timeLoss="29.66" rerouteNo="0" devices="tripinfo_30 fcd_30" vType="Human" speedFactor="1.04" vaporized=""/>
</tripinfos>
