<?xml version="1.0" encoding="UTF-8"?>

<!-- generated on 2024-08-06 15:29:03 by Eclipse SUMO sumo Version 1.19.0
<configuration xmlns:xsi="http://www.w3.org/2001/XMLSchema-instance" xsi:noNamespaceSchemaLocation="http://sumo.dlr.de/xsd/sumoConfiguration.xsd">

    <input>
        <net-file value="../../network_and_config/two_route_yield/network.net.xml"/>
        <route-files value="../../network_and_config/two_route_yield/rou.rou.xml"/>
    </input>

    <output>
        <fcd-output value="../../network_and_config/two_route_yield/fcd.xml"/>
        <summary-output value="../../network_and_config/two_route_yield/summary.xml"/>
        <tripinfo-output value="../../network_and_config/two_route_yield/tripinfo.xml"/>
    </output>

    <processing>
        <time-to-teleport value="-1"/>
    </processing>

    <report>
        <no-step-log value="true"/>
    </report>

    <random_number>
        <seed value="23423"/>
    </random_number>

</configuration>
-->

<fcd-export xmlns:xsi="http://www.w3.org/2001/XMLSchema-instance" xsi:noNamespaceSchemaLocation="http://sumo.dlr.de/xsd/fcd_file.xsd">
    <timestep time="0.00"/>
    <timestep time="1.00"/>
    <timestep time="2.00"/>
    <timestep time="3.00"/>
    <timestep time="4.00"/>
    <timestep time="5.00"/>
    <timestep time="6.00"/>
    <timestep time="7.00"/>
    <timestep time="8.00"/>
    <timestep time="9.00"/>
    <timestep time="10.00"/>
    <timestep time="11.00">
        <vehicle id="25" x="5.10" y="98.40" angle="90.00" type="DEFAULT_VEHTYPE" speed="0.00" pos="5.10" lane="E0_0" slope="0.00"/>
    </timestep>
    <timestep time="12.00">
        <vehicle id="25" x="7.12" y="98.40" angle="90.00" type="DEFAULT_VEHTYPE" speed="2.02" pos="7.12" lane="E0_0" slope="0.00"/>
    </timestep>
    <timestep time="13.00">
        <vehicle id="25" x="10.97" y="98.40" angle="90.00" type="DEFAULT_VEHTYPE" speed="3.85" pos="10.97" lane="E0_0" slope="0.00"/>
    </timestep>
    <timestep time="14.00">
        <vehicle id="25" x="17.17" y="98.40" angle="90.00" type="DEFAULT_VEHTYPE" speed="6.19" pos="17.17" lane="E0_0" slope="0.00"/>
    </timestep>
    <timestep time="15.00">
        <vehicle id="25" x="25.88" y="98.40" angle="90.00" type="DEFAULT_VEHTYPE" speed="8.71" pos="25.88" lane="E0_0" slope="0.00"/>
    </timestep>
    <timestep time="16.00">
        <vehicle id="25" x="36.27" y="98.40" angle="90.00" type="DEFAULT_VEHTYPE" speed="10.40" pos="36.27" lane="E0_0" slope="0.00"/>
    </timestep>
    <timestep time="17.00">
        <vehicle id="25" x="49.02" y="98.40" angle="90.00" type="DEFAULT_VEHTYPE" speed="12.74" pos="49.02" lane="E0_0" slope="0.00"/>
    </timestep>
    <timestep time="18.00">
        <vehicle id="25" x="62.86" y="98.40" angle="90.00" type="DEFAULT_VEHTYPE" speed="13.84" pos="62.86" lane="E0_0" slope="0.00"/>
    </timestep>
    <timestep time="19.00">
        <vehicle id="25" x="76.61" y="98.40" angle="90.00" type="DEFAULT_VEHTYPE" speed="13.75" pos="76.61" lane="E0_0" slope="0.00"/>
    </timestep>
    <timestep time="20.00">
        <vehicle id="25" x="91.20" y="98.40" angle="90.00" type="DEFAULT_VEHTYPE" speed="14.60" pos="91.20" lane="E0_0" slope="0.00"/>
    </timestep>
    <timestep time="21.00">
        <vehicle id="25" x="104.93" y="98.40" angle="90.00" type="DEFAULT_VEHTYPE" speed="13.72" pos="0.93" lane="E1_0" slope="0.00"/>
    </timestep>
    <timestep time="22.00">
        <vehicle id="25" x="119.54" y="98.40" angle="90.00" type="DEFAULT_VEHTYPE" speed="14.62" pos="15.54" lane="E1_0" slope="0.00"/>
    </timestep>
    <timestep time="23.00">
        <vehicle id="25" x="133.53" y="98.40" angle="90.00" type="DEFAULT_VEHTYPE" speed="13.99" pos="29.53" lane="E1_0" slope="0.00"/>
    </timestep>
    <timestep time="24.00">
        <vehicle id="25" x="148.20" y="98.40" angle="90.00" type="DEFAULT_VEHTYPE" speed="14.67" pos="44.20" lane="E1_0" slope="0.00"/>
    </timestep>
    <timestep time="25.00">
        <vehicle id="25" x="162.54" y="98.40" angle="90.00" type="DEFAULT_VEHTYPE" speed="14.34" pos="58.54" lane="E1_0" slope="0.00"/>
    </timestep>
    <timestep time="26.00">
        <vehicle id="25" x="177.10" y="98.40" angle="90.00" type="DEFAULT_VEHTYPE" speed="14.56" pos="73.10" lane="E1_0" slope="0.00"/>
    </timestep>
    <timestep time="27.00">
        <vehicle id="25" x="187.51" y="98.40" angle="90.00" type="DEFAULT_VEHTYPE" speed="10.41" pos="83.51" lane="E1_0" slope="0.00"/>
    </timestep>
    <timestep time="28.00">
        <vehicle id="25" x="193.42" y="98.40" angle="90.00" type="DEFAULT_VEHTYPE" speed="5.91" pos="89.42" lane="E1_0" slope="0.00"/>
    </timestep>
    <timestep time="29.00">
        <vehicle id="25" x="201.88" y="98.40" angle="90.00" type="DEFAULT_VEHTYPE" speed="8.46" pos="5.88" lane=":J2_1_0" slope="0.00"/>
    </timestep>
    <timestep time="30.00">
        <vehicle id="25" x="212.69" y="98.40" angle="90.00" type="DEFAULT_VEHTYPE" speed="10.80" pos="5.49" lane="E2_0" slope="0.00"/>
    </timestep>
    <timestep time="31.00">
        <vehicle id="25" x="225.61" y="98.40" angle="90.00" type="DEFAULT_VEHTYPE" speed="12.92" pos="18.41" lane="E2_0" slope="0.00"/>
    </timestep>
    <timestep time="32.00">
        <vehicle id="25" x="240.17" y="98.40" angle="90.00" type="DEFAULT_VEHTYPE" speed="14.56" pos="32.97" lane="E2_0" slope="0.00"/>
    </timestep>
    <timestep time="33.00">
        <vehicle id="25" x="254.12" y="98.40" angle="90.00" type="DEFAULT_VEHTYPE" speed="13.95" pos="46.92" lane="E2_0" slope="0.00"/>
    </timestep>
    <timestep time="34.00">
        <vehicle id="25" x="268.35" y="98.40" angle="90.00" type="DEFAULT_VEHTYPE" speed="14.23" pos="61.15" lane="E2_0" slope="0.00"/>
    </timestep>
    <timestep time="35.00">
        <vehicle id="25" x="282.94" y="98.40" angle="90.00" type="DEFAULT_VEHTYPE" speed="14.59" pos="75.74" lane="E2_0" slope="0.00"/>
        <vehicle id="49" x="5.10" y="98.40" angle="90.00" type="DEFAULT_VEHTYPE" speed="0.00" pos="5.10" lane="E0_0" slope="0.00"/>
    </timestep>
    <timestep time="36.00">
        <vehicle id="25" x="297.57" y="98.40" angle="90.00" type="DEFAULT_VEHTYPE" speed="14.63" pos="90.37" lane="E2_0" slope="0.00"/>
        <vehicle id="49" x="7.67" y="98.40" angle="90.00" type="DEFAULT_VEHTYPE" speed="2.57" pos="7.67" lane="E0_0" slope="0.00"/>
    </timestep>
    <timestep time="37.00">
        <vehicle id="49" x="11.59" y="98.40" angle="90.00" type="DEFAULT_VEHTYPE" speed="3.92" pos="11.59" lane="E0_0" slope="0.00"/>
    </timestep>
    <timestep time="38.00">
        <vehicle id="49" x="16.87" y="98.40" angle="90.00" type="DEFAULT_VEHTYPE" speed="5.28" pos="16.87" lane="E0_0" slope="0.00"/>
    </timestep>
    <timestep time="39.00">
        <vehicle id="49" x="23.75" y="98.40" angle="90.00" type="DEFAULT_VEHTYPE" speed="6.88" pos="23.75" lane="E0_0" slope="0.00"/>
        <vehicle id="79" x="5.10" y="98.40" angle="90.00" type="DEFAULT_VEHTYPE" speed="0.00" pos="5.10" lane="E0_0" slope="0.00"/>
    </timestep>
    <timestep time="40.00">
        <vehicle id="49" x="32.65" y="98.40" angle="90.00" type="DEFAULT_VEHTYPE" speed="8.90" pos="32.65" lane="E0_0" slope="0.00"/>
        <vehicle id="79" x="7.03" y="98.40" angle="90.00" type="DEFAULT_VEHTYPE" speed="1.93" pos="7.03" lane="E0_0" slope="0.00"/>
    </timestep>
    <timestep time="41.00">
        <vehicle id="49" x="43.23" y="98.40" angle="90.00" type="DEFAULT_VEHTYPE" speed="10.58" pos="43.23" lane="E0_0" slope="0.00"/>
        <vehicle id="79" x="11.25" y="98.40" angle="90.00" type="DEFAULT_VEHTYPE" speed="4.21" pos="11.25" lane="E0_0" slope="0.00"/>
    </timestep>
    <timestep time="42.00">
        <vehicle id="49" x="55.51" y="98.40" angle="90.00" type="DEFAULT_VEHTYPE" speed="12.28" pos="55.51" lane="E0_0" slope="0.00"/>
        <vehicle id="79" x="17.10" y="98.40" angle="90.00" type="DEFAULT_VEHTYPE" speed="5.85" pos="17.10" lane="E0_0" slope="0.00"/>
    </timestep>
    <timestep time="43.00">
        <vehicle id="49" x="67.36" y="98.40" angle="90.00" type="DEFAULT_VEHTYPE" speed="11.85" pos="67.36" lane="E0_0" slope="0.00"/>
        <vehicle id="79" x="25.44" y="98.40" angle="90.00" type="DEFAULT_VEHTYPE" speed="8.34" pos="25.44" lane="E0_0" slope="0.00"/>
    </timestep>
    <timestep time="44.00">
        <vehicle id="49" x="79.37" y="98.40" angle="90.00" type="DEFAULT_VEHTYPE" speed="12.01" pos="79.37" lane="E0_0" slope="0.00"/>
        <vehicle id="79" x="35.19" y="98.40" angle="90.00" type="DEFAULT_VEHTYPE" speed="9.75" pos="35.19" lane="E0_0" slope="0.00"/>
    </timestep>
    <timestep time="45.00">
        <vehicle id="49" x="89.34" y="98.40" angle="90.00" type="DEFAULT_VEHTYPE" speed="9.97" pos="89.34" lane="E0_0" slope="0.00"/>
        <vehicle id="79" x="47.04" y="98.40" angle="90.00" type="DEFAULT_VEHTYPE" speed="11.85" pos="47.04" lane="E0_0" slope="0.00"/>
    </timestep>
    <timestep time="46.00">
        <vehicle id="49" x="94.80" y="98.11" angle="93.28" type="DEFAULT_VEHTYPE" speed="5.47" pos="2.02" lane=":J1_0_0" slope="0.00"/>
        <vehicle id="79" x="61.07" y="98.40" angle="90.00" type="DEFAULT_VEHTYPE" speed="14.03" pos="61.07" lane="E0_0" slope="0.00"/>
    </timestep>
    <timestep time="47.00">
        <vehicle id="49" x="98.11" y="94.84" angle="134.31" type="DEFAULT_VEHTYPE" speed="4.95" pos="6.97" lane=":J1_0_0" slope="0.00"/>
        <vehicle id="79" x="73.82" y="98.40" angle="90.00" type="DEFAULT_VEHTYPE" speed="12.75" pos="73.82" lane="E0_0" slope="0.00"/>
    </timestep>
    <timestep time="48.00">
        <vehicle id="49" x="98.40" y="89.68" angle="176.94" type="DEFAULT_VEHTYPE" speed="5.18" pos="3.12" lane="E3_0" slope="0.00"/>
        <vehicle id="79" x="83.67" y="98.40" angle="90.00" type="DEFAULT_VEHTYPE" speed="9.85" pos="83.67" lane="E0_0" slope="0.00"/>
    </timestep>
    <timestep time="49.00">
        <vehicle id="49" x="98.40" y="81.99" angle="180.00" type="DEFAULT_VEHTYPE" speed="7.69" pos="10.81" lane="E3_0" slope="0.00"/>
        <vehicle id="79" x="95.14" y="98.40" angle="90.00" type="DEFAULT_VEHTYPE" speed="11.48" pos="2.34" lane=":J1_1_0" slope="0.00"/>
    </timestep>
    <timestep time="50.00">
        <vehicle id="49" x="98.40" y="72.15" angle="180.00" type="DEFAULT_VEHTYPE" speed="9.84" pos="20.65" lane="E3_0" slope="0.00"/>
        <vehicle id="79" x="109.17" y="98.40" angle="90.00" type="DEFAULT_VEHTYPE" speed="14.03" pos="5.17" lane="E1_0" slope="0.00"/>
    </timestep>
    <timestep time="51.00">
        <vehicle id="49" x="98.40" y="60.93" angle="180.00" type="DEFAULT_VEHTYPE" speed="11.22" pos="31.87" lane="E3_0" slope="0.00"/>
        <vehicle id="79" x="122.86" y="98.40" angle="90.00" type="DEFAULT_VEHTYPE" speed="13.69" pos="18.86" lane="E1_0" slope="0.00"/>
    </timestep>
    <timestep time="52.00">
        <vehicle id="49" x="98.40" y="48.11" angle="180.00" type="DEFAULT_VEHTYPE" speed="12.82" pos="44.69" lane="E3_0" slope="0.00"/>
        <vehicle id="79" x="136.89" y="98.40" angle="90.00" type="DEFAULT_VEHTYPE" speed="14.03" pos="32.89" lane="E1_0" slope="0.00"/>
    </timestep>
    <timestep time="53.00">
        <vehicle id="49" x="98.40" y="36.14" angle="180.00" type="DEFAULT_VEHTYPE" speed="11.98" pos="56.66" lane="E3_0" slope="0.00"/>
        <vehicle id="79" x="149.80" y="98.40" angle="90.00" type="DEFAULT_VEHTYPE" speed="12.92" pos="45.80" lane="E1_0" slope="0.00"/>
    </timestep>
    <timestep time="54.00">
        <vehicle id="49" x="98.40" y="23.91" angle="180.00" type="DEFAULT_VEHTYPE" speed="12.23" pos="68.89" lane="E3_0" slope="0.00"/>
        <vehicle id="79" x="162.84" y="98.40" angle="90.00" type="DEFAULT_VEHTYPE" speed="13.04" pos="58.84" lane="E1_0" slope="0.00"/>
    </timestep>
    <timestep time="55.00">
        <vehicle id="49" x="98.40" y="11.85" angle="180.00" type="DEFAULT_VEHTYPE" speed="12.06" pos="80.95" lane="E3_0" slope="0.00"/>
        <vehicle id="79" x="176.01" y="98.40" angle="90.00" type="DEFAULT_VEHTYPE" speed="13.17" pos="72.01" lane="E1_0" slope="0.00"/>
    </timestep>
    <timestep time="56.00">
        <vehicle id="49" x="98.40" y="4.29" angle="180.00" type="DEFAULT_VEHTYPE" speed="7.56" pos="88.51" lane="E3_0" slope="0.00"/>
        <vehicle id="79" x="186.35" y="98.40" angle="90.00" type="DEFAULT_VEHTYPE" speed="10.34" pos="82.35" lane="E1_0" slope="0.00"/>
    </timestep>
    <timestep time="57.00">
        <vehicle id="49" x="98.40" y="0.37" angle="180.00" type="DEFAULT_VEHTYPE" speed="3.93" pos="92.43" lane="E3_0" slope="0.00"/>
        <vehicle id="79" x="192.39" y="98.40" angle="90.00" type="DEFAULT_VEHTYPE" speed="6.04" pos="88.39" lane="E1_0" slope="0.00"/>
    </timestep>
    <timestep time="58.00">
        <vehicle id="49" x="100.64" y="-1.60" angle="146.45" type="DEFAULT_VEHTYPE" speed="3.59" pos="0.64" lane="E4_0" slope="0.00"/>
        <vehicle id="79" x="200.98" y="98.40" angle="90.00" type="DEFAULT_VEHTYPE" speed="8.59" pos="4.98" lane=":J2_1_0" slope="0.00"/>
    </timestep>
    <timestep time="59.00">
        <vehicle id="49" x="106.21" y="-1.60" angle="90.00" type="DEFAULT_VEHTYPE" speed="5.57" pos="6.21" lane="E4_0" slope="0.00"/>
        <vehicle id="64" x="5.10" y="98.40" angle="90.00" type="DEFAULT_VEHTYPE" speed="0.00" pos="5.10" lane="E0_0" slope="0.00"/>
        <vehicle id="79" x="211.01" y="98.40" angle="90.00" type="DEFAULT_VEHTYPE" speed="10.03" pos="3.81" lane="E2_0" slope="0.00"/>
    </timestep>
    <timestep time="60.00">
        <vehicle id="49" x="113.28" y="-1.60" angle="90.00" type="DEFAULT_VEHTYPE" speed="7.07" pos="13.28" lane="E4_0" slope="0.00"/>
        <vehicle id="64" x="7.27" y="98.40" angle="90.00" type="DEFAULT_VEHTYPE" speed="2.17" pos="7.27" lane="E0_0" slope="0.00"/>
        <vehicle id="79" x="223.51" y="98.40" angle="90.00" type="DEFAULT_VEHTYPE" speed="12.50" pos="16.31" lane="E2_0" slope="0.00"/>
    </timestep>
    <timestep time="61.00">
        <vehicle id="49" x="122.36" y="-1.60" angle="90.00" type="DEFAULT_VEHTYPE" speed="9.08" pos="22.36" lane="E4_0" slope="0.00"/>
        <vehicle id="64" x="11.71" y="98.40" angle="90.00" type="DEFAULT_VEHTYPE" speed="4.44" pos="11.71" lane="E0_0" slope="0.00"/>
        <vehicle id="79" x="236.80" y="98.40" angle="90.00" type="DEFAULT_VEHTYPE" speed="13.29" pos="29.60" lane="E2_0" slope="0.00"/>
    </timestep>
    <timestep time="62.00">
        <vehicle id="49" x="132.92" y="-1.60" angle="90.00" type="DEFAULT_VEHTYPE" speed="10.56" pos="32.92" lane="E4_0" slope="0.00"/>
        <vehicle id="64" x="18.63" y="98.40" angle="90.00" type="DEFAULT_VEHTYPE" speed="6.92" pos="18.63" lane="E0_0" slope="0.00"/>
        <vehicle id="79" x="250.67" y="98.40" angle="90.00" type="DEFAULT_VEHTYPE" speed="13.87" pos="43.47" lane="E2_0" slope="0.00"/>
    </timestep>
    <timestep time="63.00">
        <vehicle id="49" x="144.75" y="-1.60" angle="90.00" type="DEFAULT_VEHTYPE" speed="11.83" pos="44.75" lane="E4_0" slope="0.00"/>
        <vehicle id="64" x="27.78" y="98.40" angle="90.00" type="DEFAULT_VEHTYPE" speed="9.15" pos="27.78" lane="E0_0" slope="0.00"/>
        <vehicle id="79" x="264.31" y="98.40" angle="90.00" type="DEFAULT_VEHTYPE" speed="13.64" pos="57.11" lane="E2_0" slope="0.00"/>
    </timestep>
    <timestep time="64.00">
        <vehicle id="49" x="157.04" y="-1.60" angle="90.00" type="DEFAULT_VEHTYPE" speed="12.29" pos="57.04" lane="E4_0" slope="0.00"/>
        <vehicle id="64" x="39.16" y="98.40" angle="90.00" type="DEFAULT_VEHTYPE" speed="11.38" pos="39.16" lane="E0_0" slope="0.00"/>
        <vehicle id="79" x="278.08" y="98.40" angle="90.00" type="DEFAULT_VEHTYPE" speed="13.77" pos="70.88" lane="E2_0" slope="0.00"/>
    </timestep>
    <timestep time="65.00">
        <vehicle id="39" x="5.10" y="98.40" angle="90.00" type="DEFAULT_VEHTYPE" speed="0.00" pos="5.10" lane="E0_0" slope="0.00"/>
        <vehicle id="49" x="169.73" y="-1.60" angle="90.00" type="DEFAULT_VEHTYPE" speed="12.69" pos="69.73" lane="E4_0" slope="0.00"/>
        <vehicle id="64" x="52.61" y="98.40" angle="90.00" type="DEFAULT_VEHTYPE" speed="13.45" pos="52.61" lane="E0_0" slope="0.00"/>
        <vehicle id="79" x="291.28" y="98.40" angle="90.00" type="DEFAULT_VEHTYPE" speed="13.20" pos="84.08" lane="E2_0" slope="0.00"/>
    </timestep>
    <timestep time="66.00">
        <vehicle id="39" x="6.45" y="98.40" angle="90.00" type="DEFAULT_VEHTYPE" speed="1.35" pos="6.45" lane="E0_0" slope="0.00"/>
        <vehicle id="49" x="182.44" y="-1.60" angle="90.00" type="DEFAULT_VEHTYPE" speed="12.71" pos="82.44" lane="E4_0" slope="0.00"/>
        <vehicle id="64" x="66.86" y="98.40" angle="90.00" type="DEFAULT_VEHTYPE" speed="14.25" pos="66.86" lane="E0_0" slope="0.00"/>
    </timestep>
    <timestep time="67.00">
        <vehicle id="39" x="9.27" y="98.40" angle="90.00" type="DEFAULT_VEHTYPE" speed="2.83" pos="9.27" lane="E0_0" slope="0.00"/>
        <vehicle id="49" x="193.05" y="-1.60" angle="90.00" type="DEFAULT_VEHTYPE" speed="10.61" pos="93.05" lane="E4_0" slope="0.00"/>
        <vehicle id="64" x="81.18" y="98.40" angle="90.00" type="DEFAULT_VEHTYPE" speed="14.31" pos="81.18" lane="E0_0" slope="0.00"/>
    </timestep>
    <timestep time="68.00">
        <vehicle id="39" x="14.67" y="98.40" angle="90.00" type="DEFAULT_VEHTYPE" speed="5.40" pos="14.67" lane="E0_0" slope="0.00"/>
        <vehicle id="49" x="199.83" y="-1.60" angle="90.00" type="DEFAULT_VEHTYPE" speed="6.78" pos="99.83" lane="E4_0" slope="0.00"/>
        <vehicle id="64" x="91.93" y="98.40" angle="90.00" type="DEFAULT_VEHTYPE" speed="10.76" pos="91.93" lane="E0_0" slope="0.00"/>
    </timestep>
    <timestep time="69.00">
        <vehicle id="39" x="21.53" y="98.40" angle="90.00" type="DEFAULT_VEHTYPE" speed="6.85" pos="21.53" lane="E0_0" slope="0.00"/>
        <vehicle id="49" x="201.60" y="-0.03" angle="68.80" type="DEFAULT_VEHTYPE" speed="2.72" pos="2.55" lane=":J5_0_0" slope="0.00"/>
        <vehicle id="64" x="97.49" y="96.19" angle="116.90" type="DEFAULT_VEHTYPE" speed="6.33" pos="5.46" lane=":J1_0_0" slope="0.00"/>
    </timestep>
    <timestep time="70.00">
        <vehicle id="39" x="29.78" y="98.40" angle="90.00" type="DEFAULT_VEHTYPE" speed="8.25" pos="29.78" lane="E0_0" slope="0.00"/>
        <vehicle id="49" x="201.60" y="2.46" angle="21.01" type="DEFAULT_VEHTYPE" speed="2.49" pos="2.46" lane="E5_0" slope="0.00"/>
        <vehicle id="64" x="98.40" y="89.38" angle="177.43" type="DEFAULT_VEHTYPE" speed="6.99" pos="3.42" lane="E3_0" slope="0.00"/>
    </timestep>
    <timestep time="71.00">
        <vehicle id="39" x="39.94" y="98.40" angle="90.00" type="DEFAULT_VEHTYPE" speed="10.16" pos="39.94" lane="E0_0" slope="0.00"/>
        <vehicle id="49" x="201.60" y="6.36" angle="0.00" type="DEFAULT_VEHTYPE" speed="3.89" pos="6.36" lane="E5_0" slope="0.00"/>
        <vehicle id="64" x="98.40" y="79.88" angle="180.00" type="DEFAULT_VEHTYPE" speed="9.50" pos="12.92" lane="E3_0" slope="0.00"/>
    </timestep>
    <timestep time="72.00">
        <vehicle id="39" x="52.12" y="98.40" angle="90.00" type="DEFAULT_VEHTYPE" speed="12.18" pos="52.12" lane="E0_0" slope="0.00"/>
        <vehicle id="49" x="201.60" y="12.29" angle="0.00" type="DEFAULT_VEHTYPE" speed="5.94" pos="12.29" lane="E5_0" slope="0.00"/>
        <vehicle id="64" x="98.40" y="68.70" angle="180.00" type="DEFAULT_VEHTYPE" speed="11.18" pos="24.10" lane="E3_0" slope="0.00"/>
        <vehicle id="75" x="5.10" y="98.40" angle="90.00" type="DEFAULT_VEHTYPE" speed="0.00" pos="5.10" lane="E0_0" slope="0.00"/>
    </timestep>
    <timestep time="73.00">
        <vehicle id="39" x="66.38" y="98.40" angle="90.00" type="DEFAULT_VEHTYPE" speed="14.26" pos="66.38" lane="E0_0" slope="0.00"/>
        <vehicle id="49" x="201.60" y="19.87" angle="0.00" type="DEFAULT_VEHTYPE" speed="7.58" pos="19.87" lane="E5_0" slope="0.00"/>
        <vehicle id="64" x="98.40" y="55.52" angle="180.00" type="DEFAULT_VEHTYPE" speed="13.18" pos="37.28" lane="E3_0" slope="0.00"/>
        <vehicle id="75" x="7.31" y="98.40" angle="90.00" type="DEFAULT_VEHTYPE" speed="2.21" pos="7.31" lane="E0_0" slope="0.00"/>
    </timestep>
    <timestep time="74.00">
        <vehicle id="39" x="80.31" y="98.40" angle="90.00" type="DEFAULT_VEHTYPE" speed="13.94" pos="80.31" lane="E0_0" slope="0.00"/>
        <vehicle id="49" x="201.60" y="29.60" angle="0.00" type="DEFAULT_VEHTYPE" speed="9.73" pos="29.60" lane="E5_0" slope="0.00"/>
        <vehicle id="64" x="98.40" y="41.75" angle="180.00" type="DEFAULT_VEHTYPE" speed="13.77" pos="51.05" lane="E3_0" slope="0.00"/>
        <vehicle id="75" x="11.02" y="98.40" angle="90.00" type="DEFAULT_VEHTYPE" speed="3.72" pos="11.02" lane="E0_0" slope="0.00"/>
    </timestep>
    <timestep time="75.00">
        <vehicle id="39" x="90.39" y="98.40" angle="90.00" type="DEFAULT_VEHTYPE" speed="10.08" pos="90.39" lane="E0_0" slope="0.00"/>
        <vehicle id="49" x="201.60" y="41.71" angle="0.00" type="DEFAULT_VEHTYPE" speed="12.11" pos="41.71" lane="E5_0" slope="0.00"/>
        <vehicle id="64" x="98.40" y="27.36" angle="180.00" type="DEFAULT_VEHTYPE" speed="14.39" pos="65.44" lane="E3_0" slope="0.00"/>
        <vehicle id="75" x="16.57" y="98.40" angle="90.00" type="DEFAULT_VEHTYPE" speed="5.55" pos="16.57" lane="E0_0" slope="0.00"/>
        <vehicle id="87" x="5.10" y="98.40" angle="90.00" type="DEFAULT_VEHTYPE" speed="0.00" pos="5.10" lane="E0_0" slope="0.00"/>
    </timestep>
    <timestep time="76.00">
        <vehicle id="39" x="96.02" y="97.59" angle="99.48" type="DEFAULT_VEHTYPE" speed="5.78" pos="3.37" lane=":J1_0_0" slope="0.00"/>
        <vehicle id="49" x="201.60" y="53.85" angle="0.00" type="DEFAULT_VEHTYPE" speed="12.14" pos="53.85" lane="E5_0" slope="0.00"/>
        <vehicle id="64" x="98.40" y="14.34" angle="180.00" type="DEFAULT_VEHTYPE" speed="13.03" pos="78.46" lane="E3_0" slope="0.00"/>
        <vehicle id="75" x="24.60" y="98.40" angle="90.00" type="DEFAULT_VEHTYPE" speed="8.03" pos="24.60" lane="E0_0" slope="0.00"/>
        <vehicle id="87" x="7.44" y="98.40" angle="90.00" type="DEFAULT_VEHTYPE" speed="2.34" pos="7.44" lane="E0_0" slope="0.00"/>
    </timestep>
    <timestep time="77.00">
        <vehicle id="39" x="98.40" y="92.39" angle="162.48" type="DEFAULT_VEHTYPE" speed="6.07" pos="0.41" lane="E3_0" slope="0.00"/>
        <vehicle id="49" x="201.60" y="65.69" angle="0.00" type="DEFAULT_VEHTYPE" speed="11.84" pos="65.69" lane="E5_0" slope="0.00"/>
        <vehicle id="64" x="98.40" y="5.81" angle="180.00" type="DEFAULT_VEHTYPE" speed="8.53" pos="86.99" lane="E3_0" slope="0.00"/>
        <vehicle id="75" x="34.57" y="98.40" angle="90.00" type="DEFAULT_VEHTYPE" speed="9.97" pos="34.57" lane="E0_0" slope="0.00"/>
        <vehicle id="87" x="12.36" y="98.40" angle="90.00" type="DEFAULT_VEHTYPE" speed="4.92" pos="12.36" lane="E0_0" slope="0.00"/>
    </timestep>
    <timestep time="78.00">
        <vehicle id="20" x="5.10" y="98.40" angle="90.00" type="DEFAULT_VEHTYPE" speed="0.00" pos="5.10" lane="E0_0" slope="0.00"/>
        <vehicle id="39" x="98.40" y="84.36" angle="180.00" type="DEFAULT_VEHTYPE" speed="8.03" pos="8.44" lane="E3_0" slope="0.00"/>
        <vehicle id="49" x="201.60" y="78.63" angle="0.00" type="DEFAULT_VEHTYPE" speed="12.94" pos="78.63" lane="E5_0" slope="0.00"/>
        <vehicle id="64" x="98.40" y="0.26" angle="180.00" type="DEFAULT_VEHTYPE" speed="5.55" pos="92.54" lane="E3_0" slope="0.00"/>
        <vehicle id="75" x="45.05" y="98.40" angle="90.00" type="DEFAULT_VEHTYPE" speed="10.48" pos="45.05" lane="E0_0" slope="0.00"/>
        <vehicle id="87" x="18.85" y="98.40" angle="90.00" type="DEFAULT_VEHTYPE" speed="6.49" pos="18.85" lane="E0_0" slope="0.00"/>
    </timestep>
    <timestep time="79.00">
        <vehicle id="20" x="6.65" y="98.40" angle="90.00" type="DEFAULT_VEHTYPE" speed="1.55" pos="6.65" lane="E0_0" slope="0.00"/>
        <vehicle id="39" x="98.40" y="74.79" angle="180.00" type="DEFAULT_VEHTYPE" speed="9.57" pos="18.01" lane="E3_0" slope="0.00"/>
        <vehicle id="49" x="201.60" y="89.17" angle="0.00" type="DEFAULT_VEHTYPE" speed="10.54" pos="89.17" lane="E5_0" slope="0.00"/>
        <vehicle id="64" x="100.15" y="-1.60" angle="155.61" type="DEFAULT_VEHTYPE" speed="3.00" pos="0.15" lane="E4_0" slope="0.00"/>
        <vehicle id="75" x="56.01" y="98.40" angle="90.00" type="DEFAULT_VEHTYPE" speed="10.97" pos="56.01" lane="E0_0" slope="0.00"/>
        <vehicle id="87" x="27.68" y="98.40" angle="90.00" type="DEFAULT_VEHTYPE" speed="8.83" pos="27.68" lane="E0_0" slope="0.00"/>
    </timestep>
    <timestep time="80.00">
        <vehicle id="20" x="10.23" y="98.40" angle="90.00" type="DEFAULT_VEHTYPE" speed="3.59" pos="10.23" lane="E0_0" slope="0.00"/>
        <vehicle id="39" x="98.40" y="63.36" angle="180.00" type="DEFAULT_VEHTYPE" speed="11.43" pos="29.44" lane="E3_0" slope="0.00"/>
        <vehicle id="49" x="201.94" y="95.19" angle="3.92" type="DEFAULT_VEHTYPE" speed="6.04" pos="2.41" lane=":J2_0_0" slope="0.00"/>
        <vehicle id="64" x="105.52" y="-1.60" angle="90.00" type="DEFAULT_VEHTYPE" speed="5.37" pos="5.52" lane="E4_0" slope="0.00"/>
        <vehicle id="75" x="67.17" y="98.40" angle="90.00" type="DEFAULT_VEHTYPE" speed="11.15" pos="67.17" lane="E0_0" slope="0.00"/>
        <vehicle id="87" x="37.85" y="98.40" angle="90.00" type="DEFAULT_VEHTYPE" speed="10.17" pos="37.85" lane="E0_0" slope="0.00"/>
    </timestep>
    <timestep time="81.00">
        <vehicle id="20" x="16.03" y="98.40" angle="90.00" type="DEFAULT_VEHTYPE" speed="5.80" pos="16.03" lane="E0_0" slope="0.00"/>
        <vehicle id="3" x="5.10" y="98.40" angle="90.00" type="DEFAULT_VEHTYPE" speed="0.00" pos="5.10" lane="E0_0" slope="0.00"/>
        <vehicle id="39" x="98.40" y="49.93" angle="180.00" type="DEFAULT_VEHTYPE" speed="13.43" pos="42.87" lane="E3_0" slope="0.00"/>
        <vehicle id="49" x="205.86" y="98.21" angle="53.76" type="DEFAULT_VEHTYPE" speed="5.26" pos="7.67" lane=":J2_0_0" slope="0.00"/>
        <vehicle id="64" x="112.26" y="-1.60" angle="90.00" type="DEFAULT_VEHTYPE" speed="6.74" pos="12.26" lane="E4_0" slope="0.00"/>
        <vehicle id="75" x="78.44" y="98.40" angle="90.00" type="DEFAULT_VEHTYPE" speed="11.27" pos="78.44" lane="E0_0" slope="0.00"/>
        <vehicle id="87" x="49.55" y="98.40" angle="90.00" type="DEFAULT_VEHTYPE" speed="11.70" pos="49.55" lane="E0_0" slope="0.00"/>
    </timestep>
    <timestep time="82.00">
        <vehicle id="20" x="23.65" y="98.40" angle="90.00" type="DEFAULT_VEHTYPE" speed="7.61" pos="23.65" lane="E0_0" slope="0.00"/>
        <vehicle id="3" x="6.99" y="98.40" angle="90.00" type="DEFAULT_VEHTYPE" speed="1.89" pos="6.99" lane="E0_0" slope="0.00"/>
        <vehicle id="39" x="98.40" y="36.87" angle="180.00" type="DEFAULT_VEHTYPE" speed="13.06" pos="55.93" lane="E3_0" slope="0.00"/>
        <vehicle id="49" x="211.26" y="98.40" angle="88.47" type="DEFAULT_VEHTYPE" speed="5.41" pos="4.06" lane="E2_0" slope="0.00"/>
        <vehicle id="64" x="121.05" y="-1.60" angle="90.00" type="DEFAULT_VEHTYPE" speed="8.79" pos="21.05" lane="E4_0" slope="0.00"/>
        <vehicle id="75" x="88.84" y="98.40" angle="90.00" type="DEFAULT_VEHTYPE" speed="10.41" pos="88.84" lane="E0_0" slope="0.00"/>
        <vehicle id="87" x="62.61" y="98.40" angle="90.00" type="DEFAULT_VEHTYPE" speed="13.06" pos="62.61" lane="E0_0" slope="0.00"/>
    </timestep>
    <timestep time="83.00">
        <vehicle id="20" x="32.76" y="98.40" angle="90.00" type="DEFAULT_VEHTYPE" speed="9.11" pos="32.76" lane="E0_0" slope="0.00"/>
        <vehicle id="3" x="10.57" y="98.40" angle="90.00" type="DEFAULT_VEHTYPE" speed="3.58" pos="10.57" lane="E0_0" slope="0.00"/>
        <vehicle id="39" x="98.40" y="22.78" angle="180.00" type="DEFAULT_VEHTYPE" speed="14.09" pos="70.02" lane="E3_0" slope="0.00"/>
        <vehicle id="49" x="218.74" y="98.40" angle="90.00" type="DEFAULT_VEHTYPE" speed="7.48" pos="11.54" lane="E2_0" slope="0.00"/>
        <vehicle id="64" x="132.29" y="-1.60" angle="90.00" type="DEFAULT_VEHTYPE" speed="11.24" pos="32.29" lane="E4_0" slope="0.00"/>
        <vehicle id="75" x="100.00" y="98.40" angle="90.00" type="DEFAULT_VEHTYPE" speed="11.15" pos="7.20" lane=":J1_1_0" slope="0.00"/>
        <vehicle id="87" x="75.72" y="98.40" angle="90.00" type="DEFAULT_VEHTYPE" speed="13.11" pos="75.72" lane="E0_0" slope="0.00"/>
    </timestep>
    <timestep time="84.00">
        <vehicle id="15" x="5.10" y="98.40" angle="90.00" type="DEFAULT_VEHTYPE" speed="0.00" pos="5.10" lane="E0_0" slope="0.00"/>
        <vehicle id="20" x="43.27" y="98.40" angle="90.00" type="DEFAULT_VEHTYPE" speed="10.51" pos="43.27" lane="E0_0" slope="0.00"/>
        <vehicle id="3" x="16.22" y="98.40" angle="90.00" type="DEFAULT_VEHTYPE" speed="5.65" pos="16.22" lane="E0_0" slope="0.00"/>
        <vehicle id="39" x="98.40" y="10.72" angle="180.00" type="DEFAULT_VEHTYPE" speed="12.07" pos="82.08" lane="E3_0" slope="0.00"/>
        <vehicle id="49" x="227.52" y="98.40" angle="90.00" type="DEFAULT_VEHTYPE" speed="8.78" pos="20.32" lane="E2_0" slope="0.00"/>
        <vehicle id="64" x="144.85" y="-1.60" angle="90.00" type="DEFAULT_VEHTYPE" speed="12.56" pos="44.85" lane="E4_0" slope="0.00"/>
        <vehicle id="75" x="111.13" y="98.40" angle="90.00" type="DEFAULT_VEHTYPE" speed="11.14" pos="7.13" lane="E1_0" slope="0.00"/>
        <vehicle id="87" x="88.12" y="98.40" angle="90.00" type="DEFAULT_VEHTYPE" speed="12.40" pos="88.12" lane="E0_0" slope="0.00"/>
    </timestep>
    <timestep time="85.00">
        <vehicle id="15" x="6.71" y="98.40" angle="90.00" type="DEFAULT_VEHTYPE" speed="1.61" pos="6.71" lane="E0_0" slope="0.00"/>
        <vehicle id="20" x="54.48" y="98.40" angle="90.00" type="DEFAULT_VEHTYPE" speed="11.21" pos="54.48" lane="E0_0" slope="0.00"/>
        <vehicle id="3" x="24.04" y="98.40" angle="90.00" type="DEFAULT_VEHTYPE" speed="7.82" pos="24.04" lane="E0_0" slope="0.00"/>