<?xml version="1.0" encoding="UTF-8"?>

<!-- generated on 2024-09-02 14:28:00 by Eclipse SUMO sumo Version 1.15.0
<configuration xmlns:xsi="http://www.w3.org/2001/XMLSchema-instance" xsi:noNamespaceSchemaLocation="http://sumo.dlr.de/xsd/sumoConfiguration.xsd">

    <input>
        <net-file value="network_and_config/two_route_yield/network.net.xml"/>
        <route-files value="network_and_config/two_route_yield/rou.rou.xml"/>
    </input>

    <output>
        <fcd-output value="network_and_config/two_route_yield/fcd.xml"/>
        <summary-output value="network_and_config/two_route_yield/summary.xml"/>
        <tripinfo-output value="network_and_config/two_route_yield/tripinfo.xml"/>
    </output>

    <processing>
        <time-to-teleport value="-1"/>
    </processing>

    <report>
        <no-step-log value="true"/>
    </report>

    <random_number>
        <seed value="23423"/>
    </random_number>

</configuration>
-->

<fcd-export xmlns:xsi="http://www.w3.org/2001/XMLSchema-instance" xsi:noNamespaceSchemaLocation="http://sumo.dlr.de/xsd/fcd_file.xsd">
    <timestep time="0.00"/>
    <timestep time="1.00"/>
    <timestep time="2.00"/>
    <timestep time="3.00"/>
    <timestep time="4.00"/>
    <timestep time="5.00"/>
    <timestep time="6.00"/>
    <timestep time="7.00"/>
    <timestep time="8.00"/>
    <timestep time="9.00"/>
    <timestep time="10.00"/>
    <timestep time="11.00">
        <vehicle id="25" x="5.10" y="98.40" angle="90.00" type="DEFAULT_VEHTYPE" speed="0.00" pos="5.10" lane="E0_0" slope="0.00"/>
    </timestep>
    <timestep time="12.00">
        <vehicle id="25" x="7.12" y="98.40" angle="90.00" type="DEFAULT_VEHTYPE" speed="2.02" pos="7.12" lane="E0_0" slope="0.00"/>
    </timestep>
    <timestep time="13.00">
        <vehicle id="25" x="10.97" y="98.40" angle="90.00" type="DEFAULT_VEHTYPE" speed="3.85" pos="10.97" lane="E0_0" slope="0.00"/>
    </timestep>
    <timestep time="14.00">
        <vehicle id="25" x="17.17" y="98.40" angle="90.00" type="DEFAULT_VEHTYPE" speed="6.19" pos="17.17" lane="E0_0" slope="0.00"/>
    </timestep>
    <timestep time="15.00">
        <vehicle id="25" x="25.88" y="98.40" angle="90.00" type="DEFAULT_VEHTYPE" speed="8.71" pos="25.88" lane="E0_0" slope="0.00"/>
    </timestep>
    <timestep time="16.00">
        <vehicle id="25" x="36.27" y="98.40" angle="90.00" type="DEFAULT_VEHTYPE" speed="10.40" pos="36.27" lane="E0_0" slope="0.00"/>
    </timestep>
    <timestep time="17.00">
        <vehicle id="25" x="49.02" y="98.40" angle="90.00" type="DEFAULT_VEHTYPE" speed="12.74" pos="49.02" lane="E0_0" slope="0.00"/>
    </timestep>
    <timestep time="18.00">
        <vehicle id="25" x="62.86" y="98.40" angle="90.00" type="DEFAULT_VEHTYPE" speed="13.84" pos="62.86" lane="E0_0" slope="0.00"/>
    </timestep>
    <timestep time="19.00">
        <vehicle id="25" x="76.61" y="98.40" angle="90.00" type="DEFAULT_VEHTYPE" speed="13.75" pos="76.61" lane="E0_0" slope="0.00"/>
    </timestep>
    <timestep time="20.00">
        <vehicle id="25" x="91.20" y="98.40" angle="90.00" type="DEFAULT_VEHTYPE" speed="14.60" pos="91.20" lane="E0_0" slope="0.00"/>
    </timestep>
    <timestep time="21.00">
        <vehicle id="25" x="104.93" y="98.40" angle="90.00" type="DEFAULT_VEHTYPE" speed="13.72" pos="0.93" lane="E1_0" slope="0.00"/>
    </timestep>
    <timestep time="22.00">
        <vehicle id="25" x="119.54" y="98.40" angle="90.00" type="DEFAULT_VEHTYPE" speed="14.62" pos="15.54" lane="E1_0" slope="0.00"/>
    </timestep>
    <timestep time="23.00">
        <vehicle id="25" x="133.53" y="98.40" angle="90.00" type="DEFAULT_VEHTYPE" speed="13.99" pos="29.53" lane="E1_0" slope="0.00"/>
    </timestep>
    <timestep time="24.00">
        <vehicle id="25" x="148.20" y="98.40" angle="90.00" type="DEFAULT_VEHTYPE" speed="14.67" pos="44.20" lane="E1_0" slope="0.00"/>
    </timestep>
    <timestep time="25.00">
        <vehicle id="25" x="162.54" y="98.40" angle="90.00" type="DEFAULT_VEHTYPE" speed="14.34" pos="58.54" lane="E1_0" slope="0.00"/>
    </timestep>
    <timestep time="26.00">
        <vehicle id="25" x="177.10" y="98.40" angle="90.00" type="DEFAULT_VEHTYPE" speed="14.56" pos="73.10" lane="E1_0" slope="0.00"/>
    </timestep>
    <timestep time="27.00">
        <vehicle id="25" x="187.51" y="98.40" angle="90.00" type="DEFAULT_VEHTYPE" speed="10.41" pos="83.51" lane="E1_0" slope="0.00"/>
    </timestep>
    <timestep time="28.00">
        <vehicle id="25" x="193.42" y="98.40" angle="90.00" type="DEFAULT_VEHTYPE" speed="5.91" pos="89.42" lane="E1_0" slope="0.00"/>
    </timestep>
    <timestep time="29.00">
        <vehicle id="25" x="201.88" y="98.40" angle="90.00" type="DEFAULT_VEHTYPE" speed="8.46" pos="5.88" lane=":J2_1_0" slope="0.00"/>
    </timestep>
    <timestep time="30.00">
        <vehicle id="25" x="212.69" y="98.40" angle="90.00" type="DEFAULT_VEHTYPE" speed="10.80" pos="5.49" lane="E2_0" slope="0.00"/>
    </timestep>
    <timestep time="31.00">
        <vehicle id="25" x="225.61" y="98.40" angle="90.00" type="DEFAULT_VEHTYPE" speed="12.92" pos="18.41" lane="E2_0" slope="0.00"/>
    </timestep>
    <timestep time="32.00">
        <vehicle id="25" x="240.17" y="98.40" angle="90.00" type="DEFAULT_VEHTYPE" speed="14.56" pos="32.97" lane="E2_0" slope="0.00"/>
    </timestep>
    <timestep time="33.00">
        <vehicle id="25" x="254.12" y="98.40" angle="90.00" type="DEFAULT_VEHTYPE" speed="13.95" pos="46.92" lane="E2_0" slope="0.00"/>
    </timestep>
    <timestep time="34.00">
        <vehicle id="25" x="268.35" y="98.40" angle="90.00" type="DEFAULT_VEHTYPE" speed="14.23" pos="61.15" lane="E2_0" slope="0.00"/>
    </timestep>
    <timestep time="35.00">
        <vehicle id="25" x="282.94" y="98.40" angle="90.00" type="DEFAULT_VEHTYPE" speed="14.59" pos="75.74" lane="E2_0" slope="0.00"/>
        <vehicle id="49" x="5.10" y="98.40" angle="90.00" type="DEFAULT_VEHTYPE" speed="0.00" pos="5.10" lane="E0_0" slope="0.00"/>
    </timestep>
    <timestep time="36.00">
        <vehicle id="25" x="297.57" y="98.40" angle="90.00" type="DEFAULT_VEHTYPE" speed="14.63" pos="90.37" lane="E2_0" slope="0.00"/>
        <vehicle id="49" x="7.67" y="98.40" angle="90.00" type="DEFAULT_VEHTYPE" speed="2.57" pos="7.67" lane="E0_0" slope="0.00"/>
    </timestep>
    <timestep time="37.00">
        <vehicle id="49" x="11.59" y="98.40" angle="90.00" type="DEFAULT_VEHTYPE" speed="3.92" pos="11.59" lane="E0_0" slope="0.00"/>
    </timestep>
    <timestep time="38.00">
        <vehicle id="49" x="16.87" y="98.40" angle="90.00" type="DEFAULT_VEHTYPE" speed="5.28" pos="16.87" lane="E0_0" slope="0.00"/>
    </timestep>
    <timestep time="39.00">
        <vehicle id="49" x="23.75" y="98.40" angle="90.00" type="DEFAULT_VEHTYPE" speed="6.88" pos="23.75" lane="E0_0" slope="0.00"/>
        <vehicle id="79" x="5.10" y="98.40" angle="90.00" type="DEFAULT_VEHTYPE" speed="0.00" pos="5.10" lane="E0_0" slope="0.00"/>
    </timestep>
    <timestep time="40.00">
        <vehicle id="49" x="32.65" y="98.40" angle="90.00" type="DEFAULT_VEHTYPE" speed="8.90" pos="32.65" lane="E0_0" slope="0.00"/>
        <vehicle id="79" x="7.03" y="98.40" angle="90.00" type="DEFAULT_VEHTYPE" speed="1.93" pos="7.03" lane="E0_0" slope="0.00"/>
    </timestep>
    <timestep time="41.00">
        <vehicle id="49" x="43.23" y="98.40" angle="90.00" type="DEFAULT_VEHTYPE" speed="10.58" pos="43.23" lane="E0_0" slope="0.00"/>
        <vehicle id="79" x="11.25" y="98.40" angle="90.00" type="DEFAULT_VEHTYPE" speed="4.21" pos="11.25" lane="E0_0" slope="0.00"/>
    </timestep>
    <timestep time="42.00">
        <vehicle id="49" x="55.51" y="98.40" angle="90.00" type="DEFAULT_VEHTYPE" speed="12.28" pos="55.51" lane="E0_0" slope="0.00"/>
        <vehicle id="79" x="17.10" y="98.40" angle="90.00" type="DEFAULT_VEHTYPE" speed="5.85" pos="17.10" lane="E0_0" slope="0.00"/>
    </timestep>
    <timestep time="43.00">
        <vehicle id="49" x="67.36" y="98.40" angle="90.00" type="DEFAULT_VEHTYPE" speed="11.85" pos="67.36" lane="E0_0" slope="0.00"/>
        <vehicle id="79" x="25.44" y="98.40" angle="90.00" type="DEFAULT_VEHTYPE" speed="8.34" pos="25.44" lane="E0_0" slope="0.00"/>
    </timestep>
    <timestep time="44.00">
        <vehicle id="49" x="79.37" y="98.40" angle="90.00" type="DEFAULT_VEHTYPE" speed="12.01" pos="79.37" lane="E0_0" slope="0.00"/>
        <vehicle id="79" x="35.19" y="98.40" angle="90.00" type="DEFAULT_VEHTYPE" speed="9.75" pos="35.19" lane="E0_0" slope="0.00"/>
    </timestep>
    <timestep time="45.00">
        <vehicle id="49" x="89.34" y="98.40" angle="90.00" type="DEFAULT_VEHTYPE" speed="9.97" pos="89.34" lane="E0_0" slope="0.00"/>
        <vehicle id="79" x="47.04" y="98.40" angle="90.00" type="DEFAULT_VEHTYPE" speed="11.85" pos="47.04" lane="E0_0" slope="0.00"/>
    </timestep>
    <timestep time="46.00">
        <vehicle id="49" x="94.80" y="98.11" angle="93.28" type="DEFAULT_VEHTYPE" speed="5.47" pos="2.02" lane=":J1_0_0" slope="0.00"/>
        <vehicle id="79" x="61.07" y="98.40" angle="90.00" type="DEFAULT_VEHTYPE" speed="14.03" pos="61.07" lane="E0_0" slope="0.00"/>
    </timestep>
    <timestep time="47.00">
        <vehicle id="49" x="98.11" y="94.84" angle="134.31" type="DEFAULT_VEHTYPE" speed="4.95" pos="6.97" lane=":J1_0_0" slope="0.00"/>
        <vehicle id="79" x="73.82" y="98.40" angle="90.00" type="DEFAULT_VEHTYPE" speed="12.75" pos="73.82" lane="E0_0" slope="0.00"/>
    </timestep>
    <timestep time="48.00">
        <vehicle id="49" x="98.40" y="89.68" angle="176.94" type="DEFAULT_VEHTYPE" speed="5.18" pos="3.12" lane="E3_0" slope="0.00"/>
        <vehicle id="79" x="83.67" y="98.40" angle="90.00" type="DEFAULT_VEHTYPE" speed="9.85" pos="83.67" lane="E0_0" slope="0.00"/>
    </timestep>
    <timestep time="49.00">
        <vehicle id="49" x="98.40" y="81.99" angle="180.00" type="DEFAULT_VEHTYPE" speed="7.69" pos="10.81" lane="E3_0" slope="0.00"/>
        <vehicle id="79" x="91.83" y="98.40" angle="90.00" type="DEFAULT_VEHTYPE" speed="8.16" pos="91.83" lane="E0_0" slope="0.00"/>
    </timestep>
    <timestep time="50.00">
        <vehicle id="49" x="98.40" y="72.15" angle="180.00" type="DEFAULT_VEHTYPE" speed="9.84" pos="20.65" lane="E3_0" slope="0.00"/>
        <vehicle id="79" x="97.34" y="96.43" angle="113.96" type="DEFAULT_VEHTYPE" speed="6.15" pos="5.17" lane=":J1_0_0" slope="0.00"/>
    </timestep>
    <timestep time="51.00">
        <vehicle id="49" x="98.40" y="60.93" angle="180.00" type="DEFAULT_VEHTYPE" speed="11.22" pos="31.87" lane="E3_0" slope="0.00"/>
        <vehicle id="79" x="98.40" y="90.14" angle="176.20" type="DEFAULT_VEHTYPE" speed="6.52" pos="2.66" lane="E3_0" slope="0.00"/>
    </timestep>
    <timestep time="52.00">
        <vehicle id="49" x="98.40" y="48.11" angle="180.00" type="DEFAULT_VEHTYPE" speed="12.82" pos="44.69" lane="E3_0" slope="0.00"/>
        <vehicle id="79" x="98.40" y="82.07" angle="180.00" type="DEFAULT_VEHTYPE" speed="8.06" pos="10.73" lane="E3_0" slope="0.00"/>
    </timestep>
    <timestep time="53.00">
        <vehicle id="49" x="98.40" y="35.89" angle="180.00" type="DEFAULT_VEHTYPE" speed="12.23" pos="56.91" lane="E3_0" slope="0.00"/>
        <vehicle id="79" x="98.40" y="72.01" angle="180.00" type="DEFAULT_VEHTYPE" speed="10.06" pos="20.79" lane="E3_0" slope="0.00"/>
    </timestep>
    <timestep time="54.00">
        <vehicle id="49" x="98.40" y="23.57" angle="180.00" type="DEFAULT_VEHTYPE" speed="12.32" pos="69.23" lane="E3_0" slope="0.00"/>
        <vehicle id="79" x="98.40" y="59.71" angle="180.00" type="DEFAULT_VEHTYPE" speed="12.30" pos="33.09" lane="E3_0" slope="0.00"/>
    </timestep>
    <timestep time="55.00">
        <vehicle id="49" x="98.40" y="10.98" angle="180.00" type="DEFAULT_VEHTYPE" speed="12.59" pos="81.82" lane="E3_0" slope="0.00"/>
        <vehicle id="79" x="98.40" y="45.77" angle="180.00" type="DEFAULT_VEHTYPE" speed="13.95" pos="47.03" lane="E3_0" slope="0.00"/>
    </timestep>
    <timestep time="56.00">
        <vehicle id="49" x="98.40" y="2.89" angle="180.00" type="DEFAULT_VEHTYPE" speed="8.09" pos="89.91" lane="E3_0" slope="0.00"/>
        <vehicle id="79" x="98.40" y="32.33" angle="180.00" type="DEFAULT_VEHTYPE" speed="13.44" pos="60.47" lane="E3_0" slope="0.00"/>
    </timestep>
    <timestep time="57.00">
        <vehicle id="49" x="98.50" y="-0.68" angle="178.88" type="DEFAULT_VEHTYPE" speed="3.59" pos="0.69" lane=":J4_0_0" slope="0.00"/>
        <vehicle id="79" x="98.40" y="19.97" angle="180.00" type="DEFAULT_VEHTYPE" speed="12.36" pos="72.83" lane="E3_0" slope="0.00"/>
    </timestep>
    <timestep time="58.00">
        <vehicle id="49" x="101.20" y="-1.60" angle="135.19" type="DEFAULT_VEHTYPE" speed="3.09" pos="1.20" lane="E4_0" slope="0.00"/>
        <vehicle id="79" x="98.40" y="11.74" angle="180.00" type="DEFAULT_VEHTYPE" speed="8.24" pos="81.06" lane="E3_0" slope="0.00"/>
    </timestep>
    <timestep time="59.00">
        <vehicle id="49" x="106.28" y="-1.60" angle="90.00" type="DEFAULT_VEHTYPE" speed="5.08" pos="6.28" lane="E4_0" slope="0.00"/>
        <vehicle id="64" x="5.10" y="98.40" angle="90.00" type="DEFAULT_VEHTYPE" speed="0.00" pos="5.10" lane="E0_0" slope="0.00"/>
        <vehicle id="79" x="98.40" y="6.46" angle="180.00" type="DEFAULT_VEHTYPE" speed="5.28" pos="86.34" lane="E3_0" slope="0.00"/>
    </timestep>
    <timestep time="60.00">
        <vehicle id="49" x="112.85" y="-1.60" angle="90.00" type="DEFAULT_VEHTYPE" speed="6.57" pos="12.85" lane="E4_0" slope="0.00"/>
        <vehicle id="64" x="7.37" y="98.40" angle="90.00" type="DEFAULT_VEHTYPE" speed="2.27" pos="7.37" lane="E0_0" slope="0.00"/>
        <vehicle id="79" x="98.40" y="0.28" angle="180.00" type="DEFAULT_VEHTYPE" speed="6.18" pos="92.52" lane="E3_0" slope="0.00"/>
    </timestep>
    <timestep time="61.00">
        <vehicle id="49" x="121.43" y="-1.60" angle="90.00" type="DEFAULT_VEHTYPE" speed="8.58" pos="21.43" lane="E4_0" slope="0.00"/>
        <vehicle id="64" x="12.13" y="98.40" angle="90.00" type="DEFAULT_VEHTYPE" speed="4.76" pos="12.13" lane="E0_0" slope="0.00"/>
        <vehicle id="79" x="100.44" y="-1.60" angle="150.23" type="DEFAULT_VEHTYPE" speed="3.30" pos="0.44" lane="E4_0" slope="0.00"/>
    </timestep>
    <timestep time="62.00">
        <vehicle id="49" x="131.49" y="-1.60" angle="90.00" type="DEFAULT_VEHTYPE" speed="10.06" pos="31.49" lane="E4_0" slope="0.00"/>
        <vehicle id="64" x="19.11" y="98.40" angle="90.00" type="DEFAULT_VEHTYPE" speed="6.98" pos="19.11" lane="E0_0" slope="0.00"/>
        <vehicle id="79" x="105.15" y="-1.60" angle="90.00" type="DEFAULT_VEHTYPE" speed="4.70" pos="5.15" lane="E4_0" slope="0.00"/>
    </timestep>
    <timestep time="63.00">
        <vehicle id="49" x="143.41" y="-1.60" angle="90.00" type="DEFAULT_VEHTYPE" speed="11.92" pos="43.41" lane="E4_0" slope="0.00"/>
        <vehicle id="64" x="28.32" y="98.40" angle="90.00" type="DEFAULT_VEHTYPE" speed="9.21" pos="28.32" lane="E0_0" slope="0.00"/>
        <vehicle id="79" x="112.11" y="-1.60" angle="90.00" type="DEFAULT_VEHTYPE" speed="6.96" pos="12.11" lane="E4_0" slope="0.00"/>
    </timestep>
    <timestep time="64.00">
        <vehicle id="49" x="156.12" y="-1.60" angle="90.00" type="DEFAULT_VEHTYPE" speed="12.71" pos="56.12" lane="E4_0" slope="0.00"/>
        <vehicle id="64" x="39.61" y="98.40" angle="90.00" type="DEFAULT_VEHTYPE" speed="11.29" pos="39.61" lane="E0_0" slope="0.00"/>
        <vehicle id="79" x="121.24" y="-1.60" angle="90.00" type="DEFAULT_VEHTYPE" speed="9.14" pos="21.24" lane="E4_0" slope="0.00"/>
    </timestep>
    <timestep time="65.00">
        <vehicle id="39" x="5.10" y="98.40" angle="90.00" type="DEFAULT_VEHTYPE" speed="0.00" pos="5.10" lane="E0_0" slope="0.00"/>
        <vehicle id="49" x="168.98" y="-1.60" angle="90.00" type="DEFAULT_VEHTYPE" speed="12.87" pos="68.98" lane="E4_0" slope="0.00"/>
        <vehicle id="64" x="52.71" y="98.40" angle="90.00" type="DEFAULT_VEHTYPE" speed="13.10" pos="52.71" lane="E0_0" slope="0.00"/>
        <vehicle id="79" x="132.04" y="-1.60" angle="90.00" type="DEFAULT_VEHTYPE" speed="10.80" pos="32.04" lane="E4_0" slope="0.00"/>
    </timestep>
    <timestep time="66.00">
        <vehicle id="39" x="6.97" y="98.40" angle="90.00" type="DEFAULT_VEHTYPE" speed="1.87" pos="6.97" lane="E0_0" slope="0.00"/>
        <vehicle id="49" x="181.78" y="-1.60" angle="90.00" type="DEFAULT_VEHTYPE" speed="12.80" pos="81.78" lane="E4_0" slope="0.00"/>
        <vehicle id="64" x="66.49" y="98.40" angle="90.00" type="DEFAULT_VEHTYPE" speed="13.79" pos="66.49" lane="E0_0" slope="0.00"/>
        <vehicle id="79" x="144.21" y="-1.60" angle="90.00" type="DEFAULT_VEHTYPE" speed="12.17" pos="44.21" lane="E4_0" slope="0.00"/>
    </timestep>
    <timestep time="67.00">
        <vehicle id="39" x="10.66" y="98.40" angle="90.00" type="DEFAULT_VEHTYPE" speed="3.68" pos="10.66" lane="E0_0" slope="0.00"/>
        <vehicle id="49" x="192.59" y="-1.60" angle="90.00" type="DEFAULT_VEHTYPE" speed="10.80" pos="92.59" lane="E4_0" slope="0.00"/>
        <vehicle id="64" x="80.41" y="98.40" angle="90.00" type="DEFAULT_VEHTYPE" speed="13.92" pos="80.41" lane="E0_0" slope="0.00"/>
        <vehicle id="79" x="158.10" y="-1.60" angle="90.00" type="DEFAULT_VEHTYPE" speed="13.88" pos="58.10" lane="E4_0" slope="0.00"/>
    </timestep>
    <timestep time="68.00">
        <vehicle id="39" x="16.22" y="98.40" angle="90.00" type="DEFAULT_VEHTYPE" speed="5.56" pos="16.22" lane="E0_0" slope="0.00"/>
        <vehicle id="49" x="198.89" y="-1.60" angle="90.00" type="DEFAULT_VEHTYPE" speed="6.30" pos="98.89" lane="E4_0" slope="0.00"/>
        <vehicle id="64" x="95.42" y="98.40" angle="90.00" type="DEFAULT_VEHTYPE" speed="15.01" pos="2.62" lane=":J1_1_0" slope="0.00"/>
        <vehicle id="79" x="171.02" y="-1.60" angle="90.00" type="DEFAULT_VEHTYPE" speed="12.92" pos="71.02" lane="E4_0" slope="0.00"/>
    </timestep>
    <timestep time="69.00">
        <vehicle id="39" x="23.24" y="98.40" angle="90.00" type="DEFAULT_VEHTYPE" speed="7.02" pos="23.24" lane="E0_0" slope="0.00"/>
        <vehicle id="49" x="201.59" y="-0.06" angle="69.23" type="DEFAULT_VEHTYPE" speed="3.64" pos="2.52" lane=":J5_0_0" slope="0.00"/>
        <vehicle id="64" x="110.45" y="98.40" angle="90.00" type="DEFAULT_VEHTYPE" speed="15.04" pos="6.45" lane="E1_0" slope="0.00"/>
        <vehicle id="79" x="182.13" y="-1.60" angle="90.00" type="DEFAULT_VEHTYPE" speed="11.11" pos="82.13" lane="E4_0" slope="0.00"/>
    </timestep>
    <timestep time="70.00">
        <vehicle id="39" x="31.65" y="98.40" angle="90.00" type="DEFAULT_VEHTYPE" speed="8.42" pos="31.65" lane="E0_0" slope="0.00"/>
        <vehicle id="49" x="201.60" y="2.44" angle="21.44" type="DEFAULT_VEHTYPE" speed="2.49" pos="2.44" lane="E5_0" slope="0.00"/>
        <vehicle id="64" x="125.14" y="98.40" angle="90.00" type="DEFAULT_VEHTYPE" speed="14.69" pos="21.14" lane="E1_0" slope="0.00"/>
        <vehicle id="79" x="190.80" y="-1.60" angle="90.00" type="DEFAULT_VEHTYPE" speed="8.67" pos="90.80" lane="E4_0" slope="0.00"/>
    </timestep>
    <timestep time="71.00">
        <vehicle id="39" x="41.98" y="98.40" angle="90.00" type="DEFAULT_VEHTYPE" speed="10.33" pos="41.98" lane="E0_0" slope="0.00"/>
        <vehicle id="49" x="201.60" y="6.33" angle="0.00" type="DEFAULT_VEHTYPE" speed="3.89" pos="6.33" lane="E5_0" slope="0.00"/>
        <vehicle id="64" x="140.17" y="98.40" angle="90.00" type="DEFAULT_VEHTYPE" speed="15.03" pos="36.17" lane="E1_0" slope="0.00"/>
        <vehicle id="79" x="195.62" y="-1.60" angle="90.00" type="DEFAULT_VEHTYPE" speed="4.82" pos="95.62" lane="E4_0" slope="0.00"/>
    </timestep>
    <timestep time="72.00">
        <vehicle id="39" x="54.32" y="98.40" angle="90.00" type="DEFAULT_VEHTYPE" speed="12.34" pos="54.32" lane="E0_0" slope="0.00"/>
        <vehicle id="49" x="201.60" y="12.27" angle="0.00" type="DEFAULT_VEHTYPE" speed="5.94" pos="12.27" lane="E5_0" slope="0.00"/>
        <vehicle id="64" x="154.10" y="98.40" angle="90.00" type="DEFAULT_VEHTYPE" speed="13.92" pos="50.10" lane="E1_0" slope="0.00"/>
        <vehicle id="75" x="5.10" y="98.40" angle="90.00" type="DEFAULT_VEHTYPE" speed="0.00" pos="5.10" lane="E0_0" slope="0.00"/>
        <vehicle id="79" x="199.62" y="-1.60" angle="90.00" type="DEFAULT_VEHTYPE" speed="4.00" pos="99.62" lane="E4_0" slope="0.00"/>
    </timestep>
    <timestep time="73.00">
        <vehicle id="39" x="68.59" y="98.40" angle="90.00" type="DEFAULT_VEHTYPE" speed="14.26" pos="68.59" lane="E0_0" slope="0.00"/>
        <vehicle id="49" x="201.60" y="19.85" angle="0.00" type="DEFAULT_VEHTYPE" speed="7.58" pos="19.85" lane="E5_0" slope="0.00"/>
        <vehicle id="64" x="168.14" y="98.40" angle="90.00" type="DEFAULT_VEHTYPE" speed="14.04" pos="64.14" lane="E1_0" slope="0.00"/>
        <vehicle id="75" x="7.31" y="98.40" angle="90.00" type="DEFAULT_VEHTYPE" speed="2.21" pos="7.31" lane="E0_0" slope="0.00"/>
        <vehicle id="79" x="201.60" y="0.54" angle="58.36" type="DEFAULT_VEHTYPE" speed="3.50" pos="0.54" lane="E5_0" slope="0.00"/>
    </timestep>
    <timestep time="74.00">
        <vehicle id="39" x="82.52" y="98.40" angle="90.00" type="DEFAULT_VEHTYPE" speed="13.94" pos="82.52" lane="E0_0" slope="0.00"/>
        <vehicle id="49" x="201.60" y="29.57" angle="0.00" type="DEFAULT_VEHTYPE" speed="9.73" pos="29.57" lane="E5_0" slope="0.00"/>
        <vehicle id="64" x="180.96" y="98.40" angle="90.00" type="DEFAULT_VEHTYPE" speed="12.82" pos="76.96" lane="E1_0" slope="0.00"/>
        <vehicle id="75" x="11.02" y="98.40" angle="90.00" type="DEFAULT_VEHTYPE" speed="3.72" pos="11.02" lane="E0_0" slope="0.00"/>
        <vehicle id="79" x="201.60" y="6.43" angle="0.00" type="DEFAULT_VEHTYPE" speed="5.88" pos="6.43" lane="E5_0" slope="0.00"/>
    </timestep>
    <timestep time="75.00">
        <vehicle id="39" x="95.70" y="98.40" angle="90.00" type="DEFAULT_VEHTYPE" speed="13.18" pos="2.90" lane=":J1_1_0" slope="0.00"/>
        <vehicle id="49" x="201.60" y="41.01" angle="0.00" type="DEFAULT_VEHTYPE" speed="11.44" pos="41.01" lane="E5_0" slope="0.00"/>
        <vehicle id="64" x="189.65" y="98.40" angle="90.00" type="DEFAULT_VEHTYPE" speed="8.69" pos="85.65" lane="E1_0" slope="0.00"/>
        <vehicle id="75" x="16.57" y="98.40" angle="90.00" type="DEFAULT_VEHTYPE" speed="5.55" pos="16.57" lane="E0_0" slope="0.00"/>
        <vehicle id="79" x="201.60" y="13.72" angle="0.00" type="DEFAULT_VEHTYPE" speed="7.29" pos="13.72" lane="E5_0" slope="0.00"/>
        <vehicle id="87" x="5.10" y="98.40" angle="90.00" type="DEFAULT_VEHTYPE" speed="0.00" pos="5.10" lane="E0_0" slope="0.00"/>
    </timestep>
    <timestep time="76.00">
        <vehicle id="39" x="109.61" y="98.40" angle="90.00" type="DEFAULT_VEHTYPE" speed="13.91" pos="5.61" lane="E1_0" slope="0.00"/>
        <vehicle id="49" x="201.60" y="53.95" angle="0.00" type="DEFAULT_VEHTYPE" speed="12.94" pos="53.95" lane="E5_0" slope="0.00"/>
        <vehicle id="64" x="194.04" y="98.40" angle="90.00" type="DEFAULT_VEHTYPE" speed="4.39" pos="90.04" lane="E1_0" slope="0.00"/>
        <vehicle id="75" x="23.79" y="98.40" angle="90.00" type="DEFAULT_VEHTYPE" speed="7.22" pos="23.79" lane="E0_0" slope="0.00"/>
        <vehicle id="79" x="201.60" y="23.54" angle="0.00" type="DEFAULT_VEHTYPE" speed="9.82" pos="23.54" lane="E5_0" slope="0.00"/>
        <vehicle id="87" x="7.58" y="98.40" angle="90.00" type="DEFAULT_VEHTYPE" speed="2.48" pos="7.58" lane="E0_0" slope="0.00"/>
    </timestep>
    <timestep time="77.00">
        <vehicle id="39" x="123.58" y="98.40" angle="90.00" type="DEFAULT_VEHTYPE" speed="13.97" pos="19.58" lane="E1_0" slope="0.00"/>
        <vehicle id="49" x="201.60" y="66.65" angle="0.00" type="DEFAULT_VEHTYPE" speed="12.69" pos="66.65" lane="E5_0" slope="0.00"/>
        <vehicle id="64" x="195.86" y="98.40" angle="90.00" type="DEFAULT_VEHTYPE" speed="1.82" pos="91.86" lane="E1_0" slope="0.00"/>
        <vehicle id="75" x="33.35" y="98.40" angle="90.00" type="DEFAULT_VEHTYPE" speed="9.56" pos="33.35" lane="E0_0" slope="0.00"/>
        <vehicle id="79" x="201.60" y="35.62" angle="0.00" type="DEFAULT_VEHTYPE" speed="12.08" pos="35.62" lane="E5_0" slope="0.00"/>
        <vehicle id="87" x="12.00" y="98.40" angle="90.00" type="DEFAULT_VEHTYPE" speed="4.42" pos="12.00" lane="E0_0" slope="0.00"/>
    </timestep>
    <timestep time="78.00">
        <vehicle id="20" x="5.10" y="98.40" angle="90.00" type="DEFAULT_VEHTYPE" speed="0.00" pos="5.10" lane="E0_0" slope="0.00"/>
        <vehicle id="39" x="137.62" y="98.40" angle="90.00" type="DEFAULT_VEHTYPE" speed="14.04" pos="33.62" lane="E1_0" slope="0.00"/>
        <vehicle id="49" x="201.60" y="79.07" angle="0.00" type="DEFAULT_VEHTYPE" speed="12.42" pos="79.07" lane="E5_0" slope="0.00"/>
        <vehicle id="64" x="195.89" y="98.40" angle="90.00" type="DEFAULT_VEHTYPE" speed="0.03" pos="91.89" lane="E1_0" slope="0.00"/>
        <vehicle id="75" x="44.87" y="98.40" angle="90.00" type="DEFAULT_VEHTYPE" speed="11.52" pos="44.87" lane="E0_0" slope="0.00"/>
        <vehicle id="79" x="201.60" y="48.76" angle="0.00" type="DEFAULT_VEHTYPE" speed="13.14" pos="48.76" lane="E5_0" slope="0.00"/>
        <vehicle id="87" x="17.95" y="98.40" angle="90.00" type="DEFAULT_VEHTYPE" speed="5.95" pos="17.95" lane="E0_0" slope="0.00"/>
    </timestep>
    <timestep time="79.00">
        <vehicle id="20" x="7.44" y="98.40" angle="90.00" type="DEFAULT_VEHTYPE" speed="2.34" pos="7.44" lane="E0_0" slope="0.00"/>
        <vehicle id="39" x="151.10" y="98.40" angle="90.00" type="DEFAULT_VEHTYPE" speed="13.48" pos="47.10" lane="E1_0" slope="0.00"/>
        <vehicle id="49" x="201.60" y="89.22" angle="0.00" type="DEFAULT_VEHTYPE" speed="10.15" pos="89.22" lane="E5_0" slope="0.00"/>
        <vehicle id="64" x="195.90" y="98.40" angle="90.00" type="DEFAULT_VEHTYPE" speed="0.01" pos="91.90" lane="E1_0" slope="0.00"/>
        <vehicle id="75" x="55.38" y="98.40" angle="90.00" type="DEFAULT_VEHTYPE" speed="10.51" pos="55.38" lane="E0_0" slope="0.00"/>
        <vehicle id="79" x="201.60" y="61.86" angle="0.00" type="DEFAULT_VEHTYPE" speed="13.10" pos="61.86" lane="E5_0" slope="0.00"/>
        <vehicle id="87" x="25.93" y="98.40" angle="90.00" type="DEFAULT_VEHTYPE" speed="7.98" pos="25.93" lane="E0_0" slope="0.00"/>
    </timestep>
    <timestep time="80.00">
        <vehicle id="20" x="11.12" y="98.40" angle="90.00" type="DEFAULT_VEHTYPE" speed="3.68" pos="11.12" lane="E0_0" slope="0.00"/>
        <vehicle id="39" x="164.75" y="98.40" angle="90.00" type="DEFAULT_VEHTYPE" speed="13.65" pos="60.75" lane="E1_0" slope="0.00"/>
        <vehicle id="49" x="201.89" y="94.85" angle="3.36" type="DEFAULT_VEHTYPE" speed="5.65" pos="2.07" lane=":J2_0_0" slope="0.00"/>
        <vehicle id="64" x="195.90" y="98.40" angle="90.00" type="DEFAULT_VEHTYPE" speed="0.00" pos="91.90" lane="E1_0" slope="0.00"/>
        <vehicle id="75" x="65.87" y="98.40" angle="90.00" type="DEFAULT_VEHTYPE" speed="10.49" pos="65.87" lane="E0_0" slope="0.00"/>
        <vehicle id="79" x="201.60" y="74.58" angle="0.00" type="DEFAULT_VEHTYPE" speed="12.72" pos="74.58" lane="E5_0" slope="0.00"/>
        <vehicle id="87" x="36.12" y="98.40" angle="90.00" type="DEFAULT_VEHTYPE" speed="10.19" pos="36.12" lane="E0_0" slope="0.00"/>
    </timestep>
    <timestep time="81.00">
        <vehicle id="20" x="16.33" y="98.40" angle="90.00" type="DEFAULT_VEHTYPE" speed="5.21" pos="16.33" lane="E0_0" slope="0.00"/>
        <vehicle id="3" x="5.10" y="98.40" angle="90.00" type="DEFAULT_VEHTYPE" speed="0.00" pos="5.10" lane="E0_0" slope="0.00"/>
        <vehicle id="39" x="176.21" y="98.40" angle="90.00" type="DEFAULT_VEHTYPE" speed="11.47" pos="72.21" lane="E1_0" slope="0.00"/>
        <vehicle id="49" x="205.51" y="98.16" angle="49.52" type="DEFAULT_VEHTYPE" speed="5.26" pos="7.32" lane=":J2_0_0" slope="0.00"/>
        <vehicle id="64" x="195.90" y="98.40" angle="90.00" type="DEFAULT_VEHTYPE" speed="0.00" pos="91.90" lane="E1_0" slope="0.00"/>
        <vehicle id="75" x="76.86" y="98.40" angle="90.00" type="DEFAULT_VEHTYPE" speed="10.98" pos="76.86" lane="E0_0" slope="0.00"/>
        <vehicle id="79" x="201.60" y="82.80" angle="0.00" type="DEFAULT_VEHTYPE" speed="8.22" pos="82.80" lane="E5_0" slope="0.00"/>
        <vehicle id="87" x="48.64" y="98.40" angle="90.00" type="DEFAULT_VEHTYPE" speed="12.51" pos="48.64" lane="E0_0" slope="0.00"/>
    </timestep>
    <timestep time="82.00">
        <vehicle id="20" x="22.89" y="98.40" angle="90.00" type="DEFAULT_VEHTYPE" speed="6.57" pos="22.89" lane="E0_0" slope="0.00"/>
        <vehicle id="3" x="6.91" y="98.40" angle="90.00" type="DEFAULT_VEHTYPE" speed="1.81" pos="6.91" lane="E0_0" slope="0.00"/>
        <vehicle id="39" x="183.39" y="98.40" angle="90.00" type="DEFAULT_VEHTYPE" speed="7.17" pos="79.39" lane="E1_0" slope="0.00"/>
        <vehicle id="49" x="210.91" y="98.40" angle="87.90" type="DEFAULT_VEHTYPE" speed="5.41" pos="3.71" lane="E2_0" slope="0.00"/>
        <vehicle id="64" x="195.90" y="98.40" angle="90.00" type="DEFAULT_VEHTYPE" speed="0.00" pos="91.90" lane="E1_0" slope="0.00"/>
        <vehicle id="75" x="86.69" y="98.40" angle="90.00" type="DEFAULT_VEHTYPE" speed="9.83" pos="86.69" lane="E0_0" slope="0.00"/>
        <vehicle id="79" x="201.60" y="90.07" angle="0.00" type="DEFAULT_VEHTYPE" speed="7.26" pos="90.07" lane="E5_0" slope="0.00"/>
        <vehicle id="87" x="61.55" y="98.40" angle="90.00" type="DEFAULT_VEHTYPE" speed="12.91" pos="61.55" lane="E0_0" slope="0.00"/>
    </timestep>
    <timestep time="83.00">
        <vehicle id="20" x="31.99" y="98.40" angle="90.00" type="DEFAULT_VEHTYPE" speed="9.09" pos="31.99" lane="E0_0" slope="0.00"/>
        <vehicle id="3" x="10.22" y="98.40" angle="90.00" type="DEFAULT_VEHTYPE" speed="3.31" pos="10.22" lane="E0_0" slope="0.00"/>