<?xml version="1.0" encoding="UTF-8"?>

<!-- generated on 2024-09-02 11:20:29 by Eclipse SUMO sumo Version 1.19.0
<configuration xmlns:xsi="http://www.w3.org/2001/XMLSchema-instance" xsi:noNamespaceSchemaLocation="http://sumo.dlr.de/xsd/sumoConfiguration.xsd">

    <input>
        <net-file value="../../network_and_config/two_route_yield/network.net.xml"/>
        <route-files value="../../network_and_config/two_route_yield/rou.rou.xml"/>
    </input>

    <output>
        <fcd-output value="../../network_and_config/two_route_yield/fcd.xml"/>
        <summary-output value="../../network_and_config/two_route_yield/summary.xml"/>
        <tripinfo-output value="../../network_and_config/two_route_yield/tripinfo.xml"/>
    </output>

    <processing>
        <time-to-teleport value="-1"/>
    </processing>

    <report>
        <no-step-log value="true"/>
    </report>

    <random_number>
        <seed value="23423"/>
    </random_number>

</configuration>
-->

<fcd-export xmlns:xsi="http://www.w3.org/2001/XMLSchema-instance" xsi:noNamespaceSchemaLocation="http://sumo.dlr.de/xsd/fcd_file.xsd">
    <timestep time="0.00"/>
    <timestep time="1.00"/>
    <timestep time="2.00"/>
    <timestep time="3.00"/>
    <timestep time="4.00"/>
    <timestep time="5.00"/>
    <timestep time="6.00"/>
    <timestep time="7.00"/>
    <timestep time="8.00"/>
    <timestep time="9.00"/>
    <timestep time="10.00"/>
    <timestep time="11.00">
        <vehicle id="25" x="5.10" y="98.40" angle="90.00" type="DEFAULT_VEHTYPE" speed="0.00" pos="5.10" lane="E0_0" slope="0.00"/>
    </timestep>
    <timestep time="12.00">
        <vehicle id="25" x="7.12" y="98.40" angle="90.00" type="DEFAULT_VEHTYPE" speed="2.02" pos="7.12" lane="E0_0" slope="0.00"/>
    </timestep>
    <timestep time="13.00">
        <vehicle id="25" x="10.97" y="98.40" angle="90.00" type="DEFAULT_VEHTYPE" speed="3.85" pos="10.97" lane="E0_0" slope="0.00"/>
    </timestep>
    <timestep time="14.00">
        <vehicle id="25" x="17.17" y="98.40" angle="90.00" type="DEFAULT_VEHTYPE" speed="6.19" pos="17.17" lane="E0_0" slope="0.00"/>
    </timestep>
    <timestep time="15.00">
        <vehicle id="25" x="25.88" y="98.40" angle="90.00" type="DEFAULT_VEHTYPE" speed="8.71" pos="25.88" lane="E0_0" slope="0.00"/>
    </timestep>
    <timestep time="16.00">
        <vehicle id="25" x="36.27" y="98.40" angle="90.00" type="DEFAULT_VEHTYPE" speed="10.40" pos="36.27" lane="E0_0" slope="0.00"/>
    </timestep>
    <timestep time="17.00">
        <vehicle id="25" x="49.02" y="98.40" angle="90.00" type="DEFAULT_VEHTYPE" speed="12.74" pos="49.02" lane="E0_0" slope="0.00"/>
    </timestep>
    <timestep time="18.00">
        <vehicle id="25" x="62.86" y="98.40" angle="90.00" type="DEFAULT_VEHTYPE" speed="13.84" pos="62.86" lane="E0_0" slope="0.00"/>
    </timestep>
    <timestep time="19.00">
        <vehicle id="25" x="76.61" y="98.40" angle="90.00" type="DEFAULT_VEHTYPE" speed="13.75" pos="76.61" lane="E0_0" slope="0.00"/>
    </timestep>
    <timestep time="20.00">
        <vehicle id="25" x="87.88" y="98.40" angle="90.00" type="DEFAULT_VEHTYPE" speed="11.27" pos="87.88" lane="E0_0" slope="0.00"/>
    </timestep>
    <timestep time="21.00">
        <vehicle id="25" x="94.64" y="98.14" angle="93.01" type="DEFAULT_VEHTYPE" speed="6.77" pos="1.85" lane=":J1_0_0" slope="0.00"/>
    </timestep>
    <timestep time="22.00">
        <vehicle id="25" x="98.20" y="94.22" angle="142.98" type="DEFAULT_VEHTYPE" speed="5.74" pos="7.60" lane=":J1_0_0" slope="0.00"/>
    </timestep>
    <timestep time="23.00">
        <vehicle id="25" x="98.40" y="88.26" angle="179.26" type="DEFAULT_VEHTYPE" speed="5.97" pos="4.54" lane="E3_0" slope="0.00"/>
    </timestep>
    <timestep time="24.00">
        <vehicle id="25" x="98.40" y="79.78" angle="180.00" type="DEFAULT_VEHTYPE" speed="8.48" pos="13.02" lane="E3_0" slope="0.00"/>
    </timestep>
    <timestep time="25.00">
        <vehicle id="25" x="98.40" y="69.14" angle="180.00" type="DEFAULT_VEHTYPE" speed="10.63" pos="23.66" lane="E3_0" slope="0.00"/>
    </timestep>
    <timestep time="26.00">
        <vehicle id="25" x="98.40" y="57.13" angle="180.00" type="DEFAULT_VEHTYPE" speed="12.01" pos="35.67" lane="E3_0" slope="0.00"/>
    </timestep>
    <timestep time="27.00">
        <vehicle id="25" x="98.40" y="42.74" angle="180.00" type="DEFAULT_VEHTYPE" speed="14.39" pos="50.06" lane="E3_0" slope="0.00"/>
    </timestep>
    <timestep time="28.00">
        <vehicle id="25" x="98.40" y="29.07" angle="180.00" type="DEFAULT_VEHTYPE" speed="13.67" pos="63.73" lane="E3_0" slope="0.00"/>
    </timestep>
    <timestep time="29.00">
        <vehicle id="25" x="98.40" y="15.68" angle="180.00" type="DEFAULT_VEHTYPE" speed="13.39" pos="77.12" lane="E3_0" slope="0.00"/>
    </timestep>
    <timestep time="30.00">
        <vehicle id="25" x="98.40" y="6.19" angle="180.00" type="DEFAULT_VEHTYPE" speed="9.49" pos="86.61" lane="E3_0" slope="0.00"/>
    </timestep>
    <timestep time="31.00">
        <vehicle id="25" x="98.40" y="0.72" angle="180.00" type="DEFAULT_VEHTYPE" speed="5.48" pos="92.08" lane="E3_0" slope="0.00"/>
    </timestep>
    <timestep time="32.00">
        <vehicle id="25" x="100.47" y="-1.60" angle="149.70" type="DEFAULT_VEHTYPE" speed="3.77" pos="0.47" lane="E4_0" slope="0.00"/>
    </timestep>
    <timestep time="33.00">
        <vehicle id="25" x="106.23" y="-1.60" angle="90.00" type="DEFAULT_VEHTYPE" speed="5.76" pos="6.23" lane="E4_0" slope="0.00"/>
    </timestep>
    <timestep time="34.00">
        <vehicle id="25" x="113.48" y="-1.60" angle="90.00" type="DEFAULT_VEHTYPE" speed="7.25" pos="13.48" lane="E4_0" slope="0.00"/>
    </timestep>
    <timestep time="35.00">
        <vehicle id="25" x="122.74" y="-1.60" angle="90.00" type="DEFAULT_VEHTYPE" speed="9.26" pos="22.74" lane="E4_0" slope="0.00"/>
        <vehicle id="49" x="5.10" y="98.40" angle="90.00" type="DEFAULT_VEHTYPE" speed="0.00" pos="5.10" lane="E0_0" slope="0.00"/>
    </timestep>
    <timestep time="36.00">
        <vehicle id="25" x="133.48" y="-1.60" angle="90.00" type="DEFAULT_VEHTYPE" speed="10.74" pos="33.48" lane="E4_0" slope="0.00"/>
        <vehicle id="49" x="7.67" y="98.40" angle="90.00" type="DEFAULT_VEHTYPE" speed="2.57" pos="7.67" lane="E0_0" slope="0.00"/>
    </timestep>
    <timestep time="37.00">
        <vehicle id="25" x="145.62" y="-1.60" angle="90.00" type="DEFAULT_VEHTYPE" speed="12.14" pos="45.62" lane="E4_0" slope="0.00"/>
        <vehicle id="49" x="11.59" y="98.40" angle="90.00" type="DEFAULT_VEHTYPE" speed="3.92" pos="11.59" lane="E0_0" slope="0.00"/>
    </timestep>
    <timestep time="38.00">
        <vehicle id="25" x="159.60" y="-1.60" angle="90.00" type="DEFAULT_VEHTYPE" speed="13.98" pos="59.60" lane="E4_0" slope="0.00"/>
        <vehicle id="49" x="16.87" y="98.40" angle="90.00" type="DEFAULT_VEHTYPE" speed="5.28" pos="16.87" lane="E0_0" slope="0.00"/>
    </timestep>
    <timestep time="39.00">
        <vehicle id="25" x="173.98" y="-1.60" angle="90.00" type="DEFAULT_VEHTYPE" speed="14.38" pos="73.98" lane="E4_0" slope="0.00"/>
        <vehicle id="49" x="23.75" y="98.40" angle="90.00" type="DEFAULT_VEHTYPE" speed="6.88" pos="23.75" lane="E0_0" slope="0.00"/>
        <vehicle id="79" x="5.10" y="98.40" angle="90.00" type="DEFAULT_VEHTYPE" speed="0.00" pos="5.10" lane="E0_0" slope="0.00"/>
    </timestep>
    <timestep time="40.00">
        <vehicle id="25" x="186.83" y="-1.60" angle="90.00" type="DEFAULT_VEHTYPE" speed="12.85" pos="86.83" lane="E4_0" slope="0.00"/>
        <vehicle id="49" x="32.65" y="98.40" angle="90.00" type="DEFAULT_VEHTYPE" speed="8.90" pos="32.65" lane="E0_0" slope="0.00"/>
        <vehicle id="79" x="7.03" y="98.40" angle="90.00" type="DEFAULT_VEHTYPE" speed="1.93" pos="7.03" lane="E0_0" slope="0.00"/>
    </timestep>
    <timestep time="41.00">
        <vehicle id="25" x="195.24" y="-1.60" angle="90.00" type="DEFAULT_VEHTYPE" speed="8.41" pos="95.24" lane="E4_0" slope="0.00"/>
        <vehicle id="49" x="43.23" y="98.40" angle="90.00" type="DEFAULT_VEHTYPE" speed="10.58" pos="43.23" lane="E0_0" slope="0.00"/>
        <vehicle id="79" x="11.25" y="98.40" angle="90.00" type="DEFAULT_VEHTYPE" speed="4.21" pos="11.25" lane="E0_0" slope="0.00"/>
    </timestep>
    <timestep time="42.00">
        <vehicle id="25" x="199.83" y="-1.60" angle="90.00" type="DEFAULT_VEHTYPE" speed="4.59" pos="99.83" lane="E4_0" slope="0.00"/>
        <vehicle id="49" x="55.51" y="98.40" angle="90.00" type="DEFAULT_VEHTYPE" speed="12.28" pos="55.51" lane="E0_0" slope="0.00"/>
        <vehicle id="79" x="17.10" y="98.40" angle="90.00" type="DEFAULT_VEHTYPE" speed="5.85" pos="17.10" lane="E0_0" slope="0.00"/>
    </timestep>
    <timestep time="43.00">
        <vehicle id="25" x="201.60" y="0.44" angle="60.25" type="DEFAULT_VEHTYPE" speed="3.19" pos="0.44" lane="E5_0" slope="0.00"/>
        <vehicle id="49" x="67.36" y="98.40" angle="90.00" type="DEFAULT_VEHTYPE" speed="11.85" pos="67.36" lane="E0_0" slope="0.00"/>
        <vehicle id="79" x="25.44" y="98.40" angle="90.00" type="DEFAULT_VEHTYPE" speed="8.34" pos="25.44" lane="E0_0" slope="0.00"/>
    </timestep>
    <timestep time="44.00">
        <vehicle id="25" x="201.60" y="5.04" angle="0.00" type="DEFAULT_VEHTYPE" speed="4.59" pos="5.04" lane="E5_0" slope="0.00"/>
        <vehicle id="49" x="79.37" y="98.40" angle="90.00" type="DEFAULT_VEHTYPE" speed="12.01" pos="79.37" lane="E0_0" slope="0.00"/>
        <vehicle id="79" x="35.19" y="98.40" angle="90.00" type="DEFAULT_VEHTYPE" speed="9.75" pos="35.19" lane="E0_0" slope="0.00"/>
    </timestep>
    <timestep time="45.00">
        <vehicle id="25" x="201.60" y="11.67" angle="0.00" type="DEFAULT_VEHTYPE" speed="6.64" pos="11.67" lane="E5_0" slope="0.00"/>
        <vehicle id="49" x="89.34" y="98.40" angle="90.00" type="DEFAULT_VEHTYPE" speed="9.97" pos="89.34" lane="E0_0" slope="0.00"/>
        <vehicle id="79" x="47.04" y="98.40" angle="90.00" type="DEFAULT_VEHTYPE" speed="11.85" pos="47.04" lane="E0_0" slope="0.00"/>
    </timestep>
    <timestep time="46.00">
        <vehicle id="25" x="201.60" y="19.95" angle="0.00" type="DEFAULT_VEHTYPE" speed="8.28" pos="19.95" lane="E5_0" slope="0.00"/>
        <vehicle id="49" x="94.80" y="98.11" angle="93.28" type="DEFAULT_VEHTYPE" speed="5.47" pos="2.02" lane=":J1_0_0" slope="0.00"/>
        <vehicle id="79" x="61.07" y="98.40" angle="90.00" type="DEFAULT_VEHTYPE" speed="14.03" pos="61.07" lane="E0_0" slope="0.00"/>
    </timestep>
    <timestep time="47.00">
        <vehicle id="25" x="201.60" y="30.37" angle="0.00" type="DEFAULT_VEHTYPE" speed="10.43" pos="30.37" lane="E5_0" slope="0.00"/>
        <vehicle id="49" x="98.26" y="93.75" angle="147.89" type="DEFAULT_VEHTYPE" speed="6.05" pos="8.07" lane=":J1_0_0" slope="0.00"/>
        <vehicle id="79" x="73.82" y="98.40" angle="90.00" type="DEFAULT_VEHTYPE" speed="12.75" pos="73.82" lane="E0_0" slope="0.00"/>
    </timestep>
    <timestep time="48.00">
        <vehicle id="25" x="201.60" y="43.18" angle="0.00" type="DEFAULT_VEHTYPE" speed="12.81" pos="43.18" lane="E5_0" slope="0.00"/>
        <vehicle id="49" x="98.40" y="88.29" angle="179.20" type="DEFAULT_VEHTYPE" speed="5.47" pos="4.51" lane="E3_0" slope="0.00"/>
        <vehicle id="79" x="84.40" y="98.40" angle="90.00" type="DEFAULT_VEHTYPE" speed="10.58" pos="84.40" lane="E0_0" slope="0.00"/>
    </timestep>
    <timestep time="49.00">
        <vehicle id="25" x="201.60" y="57.01" angle="0.00" type="DEFAULT_VEHTYPE" speed="13.83" pos="57.01" lane="E5_0" slope="0.00"/>
        <vehicle id="49" x="98.40" y="80.30" angle="180.00" type="DEFAULT_VEHTYPE" speed="8.00" pos="12.50" lane="E3_0" slope="0.00"/>
        <vehicle id="79" x="91.83" y="98.40" angle="90.00" type="DEFAULT_VEHTYPE" speed="7.43" pos="91.83" lane="E0_0" slope="0.00"/>
    </timestep>
    <timestep time="50.00">
        <vehicle id="25" x="201.60" y="70.54" angle="0.00" type="DEFAULT_VEHTYPE" speed="13.53" pos="70.54" lane="E5_0" slope="0.00"/>
        <vehicle id="49" x="98.40" y="69.79" angle="180.00" type="DEFAULT_VEHTYPE" speed="10.51" pos="23.01" lane="E3_0" slope="0.00"/>
        <vehicle id="79" x="97.34" y="96.43" angle="113.96" type="DEFAULT_VEHTYPE" speed="6.15" pos="5.17" lane=":J1_0_0" slope="0.00"/>
    </timestep>
    <timestep time="51.00">
        <vehicle id="25" x="201.60" y="83.83" angle="0.00" type="DEFAULT_VEHTYPE" speed="13.29" pos="83.83" lane="E5_0" slope="0.00"/>
        <vehicle id="49" x="98.40" y="57.68" angle="180.00" type="DEFAULT_VEHTYPE" speed="12.11" pos="35.12" lane="E3_0" slope="0.00"/>
        <vehicle id="79" x="98.40" y="90.85" angle="172.51" type="DEFAULT_VEHTYPE" speed="5.81" pos="1.95" lane="E3_0" slope="0.00"/>
    </timestep>
    <timestep time="52.00">
        <vehicle id="25" x="201.60" y="92.73" angle="0.00" type="DEFAULT_VEHTYPE" speed="8.90" pos="92.73" lane="E5_0" slope="0.00"/>
        <vehicle id="49" x="98.40" y="45.24" angle="180.00" type="DEFAULT_VEHTYPE" speed="12.44" pos="47.56" lane="E3_0" slope="0.00"/>
        <vehicle id="79" x="98.40" y="83.70" angle="180.00" type="DEFAULT_VEHTYPE" speed="7.14" pos="9.10" lane="E3_0" slope="0.00"/>
    </timestep>
    <timestep time="53.00">
        <vehicle id="25" x="204.70" y="98.02" angle="37.67" type="DEFAULT_VEHTYPE" speed="6.56" pos="6.50" lane=":J2_0_0" slope="0.00"/>
        <vehicle id="49" x="98.40" y="32.86" angle="180.00" type="DEFAULT_VEHTYPE" speed="12.38" pos="59.94" lane="E3_0" slope="0.00"/>
        <vehicle id="79" x="98.40" y="74.56" angle="180.00" type="DEFAULT_VEHTYPE" speed="9.15" pos="18.24" lane="E3_0" slope="0.00"/>
    </timestep>
    <timestep time="54.00">
        <vehicle id="25" x="210.72" y="98.40" angle="87.59" type="DEFAULT_VEHTYPE" speed="6.05" pos="3.52" lane="E2_0" slope="0.00"/>
        <vehicle id="49" x="98.40" y="20.81" angle="180.00" type="DEFAULT_VEHTYPE" speed="12.05" pos="71.99" lane="E3_0" slope="0.00"/>
        <vehicle id="79" x="98.40" y="63.08" angle="180.00" type="DEFAULT_VEHTYPE" speed="11.48" pos="29.72" lane="E3_0" slope="0.00"/>
    </timestep>
    <timestep time="55.00">
        <vehicle id="25" x="218.89" y="98.40" angle="90.00" type="DEFAULT_VEHTYPE" speed="8.17" pos="11.69" lane="E2_0" slope="0.00"/>
        <vehicle id="49" x="98.40" y="8.79" angle="180.00" type="DEFAULT_VEHTYPE" speed="12.01" pos="84.01" lane="E3_0" slope="0.00"/>
        <vehicle id="79" x="98.40" y="50.27" angle="180.00" type="DEFAULT_VEHTYPE" speed="12.81" pos="42.53" lane="E3_0" slope="0.00"/>
    </timestep>
    <timestep time="56.00">
        <vehicle id="25" x="229.49" y="98.40" angle="90.00" type="DEFAULT_VEHTYPE" speed="10.60" pos="22.29" lane="E2_0" slope="0.00"/>
        <vehicle id="49" x="98.40" y="1.28" angle="180.00" type="DEFAULT_VEHTYPE" speed="7.51" pos="91.52" lane="E3_0" slope="0.00"/>
        <vehicle id="79" x="98.40" y="36.97" angle="180.00" type="DEFAULT_VEHTYPE" speed="13.29" pos="55.83" lane="E3_0" slope="0.00"/>
    </timestep>
    <timestep time="57.00">
        <vehicle id="25" x="241.92" y="98.40" angle="90.00" type="DEFAULT_VEHTYPE" speed="12.43" pos="34.72" lane="E2_0" slope="0.00"/>
        <vehicle id="49" x="99.22" y="-1.45" angle="170.00" type="DEFAULT_VEHTYPE" speed="3.06" pos="1.78" lane=":J4_0_0" slope="0.00"/>
        <vehicle id="79" x="98.40" y="24.19" angle="180.00" type="DEFAULT_VEHTYPE" speed="12.78" pos="68.61" lane="E3_0" slope="0.00"/>
    </timestep>
    <timestep time="58.00">
        <vehicle id="25" x="256.15" y="98.40" angle="90.00" type="DEFAULT_VEHTYPE" speed="14.23" pos="48.95" lane="E2_0" slope="0.00"/>
        <vehicle id="49" x="102.29" y="-1.60" angle="113.92" type="DEFAULT_VEHTYPE" speed="3.09" pos="2.29" lane="E4_0" slope="0.00"/>
        <vehicle id="79" x="98.40" y="13.76" angle="180.00" type="DEFAULT_VEHTYPE" speed="10.44" pos="79.04" lane="E3_0" slope="0.00"/>
    </timestep>
    <timestep time="59.00">
        <vehicle id="25" x="270.75" y="98.40" angle="90.00" type="DEFAULT_VEHTYPE" speed="14.59" pos="63.55" lane="E2_0" slope="0.00"/>
        <vehicle id="49" x="107.75" y="-1.60" angle="90.00" type="DEFAULT_VEHTYPE" speed="5.46" pos="7.75" lane="E4_0" slope="0.00"/>
        <vehicle id="64" x="5.10" y="98.40" angle="90.00" type="DEFAULT_VEHTYPE" speed="0.00" pos="5.10" lane="E0_0" slope="0.00"/>
        <vehicle id="79" x="98.40" y="6.89" angle="180.00" type="DEFAULT_VEHTYPE" speed="6.86" pos="85.91" lane="E3_0" slope="0.00"/>
    </timestep>
    <timestep time="60.00">
        <vehicle id="25" x="285.38" y="98.40" angle="90.00" type="DEFAULT_VEHTYPE" speed="14.63" pos="78.18" lane="E2_0" slope="0.00"/>
        <vehicle id="49" x="114.59" y="-1.60" angle="90.00" type="DEFAULT_VEHTYPE" speed="6.84" pos="14.59" lane="E4_0" slope="0.00"/>
        <vehicle id="64" x="7.37" y="98.40" angle="90.00" type="DEFAULT_VEHTYPE" speed="2.27" pos="7.37" lane="E0_0" slope="0.00"/>
        <vehicle id="79" x="98.40" y="0.17" angle="180.00" type="DEFAULT_VEHTYPE" speed="6.73" pos="92.63" lane="E3_0" slope="0.00"/>
    </timestep>
    <timestep time="61.00">
        <vehicle id="25" x="299.23" y="98.40" angle="90.00" type="DEFAULT_VEHTYPE" speed="13.85" pos="92.03" lane="E2_0" slope="0.00"/>
        <vehicle id="49" x="123.47" y="-1.60" angle="90.00" type="DEFAULT_VEHTYPE" speed="8.88" pos="23.47" lane="E4_0" slope="0.00"/>
        <vehicle id="64" x="12.13" y="98.40" angle="90.00" type="DEFAULT_VEHTYPE" speed="4.76" pos="12.13" lane="E0_0" slope="0.00"/>
        <vehicle id="79" x="100.45" y="-1.60" angle="150.10" type="DEFAULT_VEHTYPE" speed="3.20" pos="0.45" lane="E4_0" slope="0.00"/>
    </timestep>
    <timestep time="62.00">
        <vehicle id="49" x="134.79" y="-1.60" angle="90.00" type="DEFAULT_VEHTYPE" speed="11.33" pos="34.79" lane="E4_0" slope="0.00"/>
        <vehicle id="64" x="19.11" y="98.40" angle="90.00" type="DEFAULT_VEHTYPE" speed="6.98" pos="19.11" lane="E0_0" slope="0.00"/>
        <vehicle id="79" x="104.97" y="-1.60" angle="90.05" type="DEFAULT_VEHTYPE" speed="4.52" pos="4.97" lane="E4_0" slope="0.00"/>
    </timestep>
    <timestep time="63.00">
        <vehicle id="49" x="146.71" y="-1.60" angle="90.00" type="DEFAULT_VEHTYPE" speed="11.92" pos="46.71" lane="E4_0" slope="0.00"/>
        <vehicle id="64" x="28.32" y="98.40" angle="90.00" type="DEFAULT_VEHTYPE" speed="9.21" pos="28.32" lane="E0_0" slope="0.00"/>
        <vehicle id="79" x="112.07" y="-1.60" angle="90.00" type="DEFAULT_VEHTYPE" speed="7.10" pos="12.07" lane="E4_0" slope="0.00"/>
    </timestep>
    <timestep time="64.00">
        <vehicle id="49" x="158.97" y="-1.60" angle="90.00" type="DEFAULT_VEHTYPE" speed="12.26" pos="58.97" lane="E4_0" slope="0.00"/>
        <vehicle id="64" x="39.61" y="98.40" angle="90.00" type="DEFAULT_VEHTYPE" speed="11.29" pos="39.61" lane="E0_0" slope="0.00"/>
        <vehicle id="79" x="121.74" y="-1.60" angle="90.00" type="DEFAULT_VEHTYPE" speed="9.67" pos="21.74" lane="E4_0" slope="0.00"/>
    </timestep>
    <timestep time="65.00">
        <vehicle id="39" x="5.10" y="98.40" angle="90.00" type="DEFAULT_VEHTYPE" speed="0.00" pos="5.10" lane="E0_0" slope="0.00"/>
        <vehicle id="49" x="171.22" y="-1.60" angle="90.00" type="DEFAULT_VEHTYPE" speed="12.25" pos="71.22" lane="E4_0" slope="0.00"/>
        <vehicle id="64" x="52.71" y="98.40" angle="90.00" type="DEFAULT_VEHTYPE" speed="13.10" pos="52.71" lane="E0_0" slope="0.00"/>
        <vehicle id="79" x="133.63" y="-1.60" angle="90.00" type="DEFAULT_VEHTYPE" speed="11.89" pos="33.63" lane="E4_0" slope="0.00"/>
    </timestep>
    <timestep time="66.00">
        <vehicle id="39" x="6.97" y="98.40" angle="90.00" type="DEFAULT_VEHTYPE" speed="1.87" pos="6.97" lane="E0_0" slope="0.00"/>
        <vehicle id="49" x="183.81" y="-1.60" angle="90.00" type="DEFAULT_VEHTYPE" speed="12.60" pos="83.81" lane="E4_0" slope="0.00"/>
        <vehicle id="64" x="66.49" y="98.40" angle="90.00" type="DEFAULT_VEHTYPE" speed="13.79" pos="66.49" lane="E0_0" slope="0.00"/>
        <vehicle id="79" x="147.04" y="-1.60" angle="90.00" type="DEFAULT_VEHTYPE" speed="13.41" pos="47.04" lane="E4_0" slope="0.00"/>
    </timestep>
    <timestep time="67.00">
        <vehicle id="39" x="10.66" y="98.40" angle="90.00" type="DEFAULT_VEHTYPE" speed="3.68" pos="10.66" lane="E0_0" slope="0.00"/>
        <vehicle id="49" x="194.04" y="-1.60" angle="90.00" type="DEFAULT_VEHTYPE" speed="10.22" pos="94.04" lane="E4_0" slope="0.00"/>
        <vehicle id="64" x="80.41" y="98.40" angle="90.00" type="DEFAULT_VEHTYPE" speed="13.92" pos="80.41" lane="E0_0" slope="0.00"/>
        <vehicle id="79" x="160.67" y="-1.60" angle="90.00" type="DEFAULT_VEHTYPE" speed="13.62" pos="60.67" lane="E4_0" slope="0.00"/>
    </timestep>
    <timestep time="68.00">
        <vehicle id="39" x="16.22" y="98.40" angle="90.00" type="DEFAULT_VEHTYPE" speed="5.56" pos="16.22" lane="E0_0" slope="0.00"/>
        <vehicle id="49" x="199.76" y="-1.60" angle="90.00" type="DEFAULT_VEHTYPE" speed="5.72" pos="99.76" lane="E4_0" slope="0.00"/>
        <vehicle id="64" x="91.93" y="98.40" angle="90.00" type="DEFAULT_VEHTYPE" speed="11.52" pos="91.93" lane="E0_0" slope="0.00"/>
        <vehicle id="79" x="174.10" y="-1.60" angle="90.00" type="DEFAULT_VEHTYPE" speed="13.44" pos="74.10" lane="E4_0" slope="0.00"/>
    </timestep>
    <timestep time="69.00">
        <vehicle id="39" x="23.18" y="98.40" angle="90.00" type="DEFAULT_VEHTYPE" speed="6.96" pos="23.18" lane="E0_0" slope="0.00"/>
        <vehicle id="49" x="201.55" y="-0.37" angle="74.21" type="DEFAULT_VEHTYPE" speed="2.45" pos="2.20" lane=":J5_0_0" slope="0.00"/>
        <vehicle id="64" x="97.84" y="95.60" angle="124.08" type="DEFAULT_VEHTYPE" speed="7.02" pos="6.15" lane=":J1_0_0" slope="0.00"/>
        <vehicle id="79" x="184.81" y="-1.60" angle="90.00" type="DEFAULT_VEHTYPE" speed="10.71" pos="84.81" lane="E4_0" slope="0.00"/>
    </timestep>
    <timestep time="70.00">
        <vehicle id="39" x="32.05" y="98.40" angle="90.00" type="DEFAULT_VEHTYPE" speed="8.87" pos="32.05" lane="E0_0" slope="0.00"/>
        <vehicle id="49" x="201.60" y="2.12" angle="27.10" type="DEFAULT_VEHTYPE" speed="2.49" pos="2.12" lane="E5_0" slope="0.00"/>
        <vehicle id="64" x="98.40" y="88.69" angle="178.56" type="DEFAULT_VEHTYPE" speed="6.99" pos="4.11" lane="E3_0" slope="0.00"/>
        <vehicle id="79" x="191.65" y="-1.60" angle="90.00" type="DEFAULT_VEHTYPE" speed="6.84" pos="91.65" lane="E4_0" slope="0.00"/>
    </timestep>
    <timestep time="71.00">
        <vehicle id="39" x="42.94" y="98.40" angle="90.00" type="DEFAULT_VEHTYPE" speed="10.89" pos="42.94" lane="E0_0" slope="0.00"/>
        <vehicle id="49" x="201.60" y="6.87" angle="0.00" type="DEFAULT_VEHTYPE" speed="4.75" pos="6.87" lane="E5_0" slope="0.00"/>
        <vehicle id="64" x="98.40" y="80.25" angle="180.00" type="DEFAULT_VEHTYPE" speed="8.43" pos="12.55" lane="E3_0" slope="0.00"/>
        <vehicle id="79" x="195.80" y="-1.60" angle="90.00" type="DEFAULT_VEHTYPE" speed="4.15" pos="95.80" lane="E4_0" slope="0.00"/>
    </timestep>
    <timestep time="72.00">
        <vehicle id="39" x="56.37" y="98.40" angle="90.00" type="DEFAULT_VEHTYPE" speed="13.44" pos="56.37" lane="E0_0" slope="0.00"/>
        <vehicle id="49" x="201.60" y="13.61" angle="0.00" type="DEFAULT_VEHTYPE" speed="6.74" pos="13.61" lane="E5_0" slope="0.00"/>
        <vehicle id="64" x="98.40" y="70.22" angle="180.00" type="DEFAULT_VEHTYPE" speed="10.03" pos="22.58" lane="E3_0" slope="0.00"/>
        <vehicle id="75" x="5.10" y="98.40" angle="90.00" type="DEFAULT_VEHTYPE" speed="0.00" pos="5.10" lane="E0_0" slope="0.00"/>
        <vehicle id="79" x="199.56" y="-1.60" angle="90.00" type="DEFAULT_VEHTYPE" speed="3.76" pos="99.56" lane="E4_0" slope="0.00"/>
    </timestep>
    <timestep time="73.00">
        <vehicle id="39" x="70.29" y="98.40" angle="90.00" type="DEFAULT_VEHTYPE" speed="13.92" pos="70.29" lane="E0_0" slope="0.00"/>
        <vehicle id="49" x="201.60" y="22.06" angle="0.00" type="DEFAULT_VEHTYPE" speed="8.45" pos="22.06" lane="E5_0" slope="0.00"/>
        <vehicle id="64" x="98.40" y="58.70" angle="180.00" type="DEFAULT_VEHTYPE" speed="11.52" pos="34.10" lane="E3_0" slope="0.00"/>
        <vehicle id="75" x="7.33" y="98.40" angle="90.00" type="DEFAULT_VEHTYPE" speed="2.23" pos="7.33" lane="E0_0" slope="0.00"/>
        <vehicle id="79" x="201.60" y="0.47" angle="59.81" type="DEFAULT_VEHTYPE" speed="3.49" pos="0.47" lane="E5_0" slope="0.00"/>
    </timestep>
    <timestep time="74.00">
        <vehicle id="39" x="83.51" y="98.40" angle="90.00" type="DEFAULT_VEHTYPE" speed="13.22" pos="83.51" lane="E0_0" slope="0.00"/>
        <vehicle id="49" x="201.60" y="32.65" angle="0.00" type="DEFAULT_VEHTYPE" speed="10.59" pos="32.65" lane="E5_0" slope="0.00"/>
        <vehicle id="64" x="98.40" y="44.76" angle="180.00" type="DEFAULT_VEHTYPE" speed="13.95" pos="48.04" lane="E3_0" slope="0.00"/>
        <vehicle id="75" x="11.02" y="98.40" angle="90.00" type="DEFAULT_VEHTYPE" speed="3.70" pos="11.02" lane="E0_0" slope="0.00"/>
        <vehicle id="79" x="201.60" y="5.62" angle="0.00" type="DEFAULT_VEHTYPE" speed="5.15" pos="5.62" lane="E5_0" slope="0.00"/>
    </timestep>
    <timestep time="75.00">
        <vehicle id="39" x="97.05" y="98.40" angle="90.00" type="DEFAULT_VEHTYPE" speed="13.54" pos="4.25" lane=":J1_1_0" slope="0.00"/>
        <vehicle id="49" x="201.60" y="44.54" angle="0.00" type="DEFAULT_VEHTYPE" speed="11.89" pos="44.54" lane="E5_0" slope="0.00"/>
        <vehicle id="64" x="98.40" y="30.21" angle="180.00" type="DEFAULT_VEHTYPE" speed="14.55" pos="62.59" lane="E3_0" slope="0.00"/>
        <vehicle id="75" x="16.39" y="98.40" angle="90.00" type="DEFAULT_VEHTYPE" speed="5.37" pos="16.39" lane="E0_0" slope="0.00"/>
        <vehicle id="79" x="201.60" y="12.71" angle="0.00" type="DEFAULT_VEHTYPE" speed="7.09" pos="12.71" lane="E5_0" slope="0.00"/>
        <vehicle id="87" x="5.10" y="98.40" angle="90.00" type="DEFAULT_VEHTYPE" speed="0.00" pos="5.10" lane="E0_0" slope="0.00"/>
    </timestep>
    <timestep time="76.00">
        <vehicle id="39" x="111.36" y="98.40" angle="90.00" type="DEFAULT_VEHTYPE" speed="14.31" pos="7.36" lane="E1_0" slope="0.00"/>
        <vehicle id="49" x="201.60" y="56.45" angle="0.00" type="DEFAULT_VEHTYPE" speed="11.91" pos="56.45" lane="E5_0" slope="0.00"/>
        <vehicle id="64" x="98.40" y="16.54" angle="180.00" type="DEFAULT_VEHTYPE" speed="13.67" pos="76.26" lane="E3_0" slope="0.00"/>
        <vehicle id="75" x="24.23" y="98.40" angle="90.00" type="DEFAULT_VEHTYPE" speed="7.84" pos="24.23" lane="E0_0" slope="0.00"/>
        <vehicle id="79" x="201.60" y="22.12" angle="0.00" type="DEFAULT_VEHTYPE" speed="9.41" pos="22.12" lane="E5_0" slope="0.00"/>
        <vehicle id="87" x="7.44" y="98.40" angle="90.00" type="DEFAULT_VEHTYPE" speed="2.34" pos="7.44" lane="E0_0" slope="0.00"/>
    </timestep>
    <timestep time="77.00">
        <vehicle id="39" x="125.57" y="98.40" angle="90.00" type="DEFAULT_VEHTYPE" speed="14.20" pos="21.57" lane="E1_0" slope="0.00"/>
        <vehicle id="49" x="201.60" y="69.29" angle="0.00" type="DEFAULT_VEHTYPE" speed="12.83" pos="69.29" lane="E5_0" slope="0.00"/>
        <vehicle id="64" x="98.40" y="6.32" angle="180.00" type="DEFAULT_VEHTYPE" speed="10.21" pos="86.48" lane="E3_0" slope="0.00"/>
        <vehicle id="75" x="34.02" y="98.40" angle="90.00" type="DEFAULT_VEHTYPE" speed="9.79" pos="34.02" lane="E0_0" slope="0.00"/>
        <vehicle id="79" x="201.60" y="33.13" angle="0.00" type="DEFAULT_VEHTYPE" speed="11.00" pos="33.13" lane="E5_0" slope="0.00"/>
        <vehicle id="87" x="12.36" y="98.40" angle="90.00" type="DEFAULT_VEHTYPE" speed="4.92" pos="12.36" lane="E0_0" slope="0.00"/>
    </timestep>
    <timestep time="78.00">
        <vehicle id="20" x="5.10" y="98.40" angle="90.00" type="DEFAULT_VEHTYPE" speed="0.00" pos="5.10" lane="E0_0" slope="0.00"/>
        <vehicle id="39" x="139.14" y="98.40" angle="90.00" type="DEFAULT_VEHTYPE" speed="13.57" pos="35.14" lane="E1_0" slope="0.00"/>
        <vehicle id="49" x="201.60" y="81.06" angle="0.00" type="DEFAULT_VEHTYPE" speed="11.77" pos="81.06" lane="E5_0" slope="0.00"/>
        <vehicle id="64" x="98.40" y="0.61" angle="180.00" type="DEFAULT_VEHTYPE" speed="5.71" pos="92.19" lane="E3_0" slope="0.00"/>
        <vehicle id="75" x="44.49" y="98.40" angle="90.00" type="DEFAULT_VEHTYPE" speed="10.48" pos="44.49" lane="E0_0" slope="0.00"/>
        <vehicle id="79" x="201.60" y="45.68" angle="0.00" type="DEFAULT_VEHTYPE" speed="12.55" pos="45.68" lane="E5_0" slope="0.00"/>
        <vehicle id="87" x="18.85" y="98.40" angle="90.00" type="DEFAULT_VEHTYPE" speed="6.49" pos="18.85" lane="E0_0" slope="0.00"/>
    </timestep>
    <timestep time="79.00">
        <vehicle id="20" x="6.65" y="98.40" angle="90.00" type="DEFAULT_VEHTYPE" speed="1.55" pos="6.65" lane="E0_0" slope="0.00"/>
        <vehicle id="39" x="153.40" y="98.40" angle="90.00" type="DEFAULT_VEHTYPE" speed="14.26" pos="49.40" lane="E1_0" slope="0.00"/>
        <vehicle id="49" x="201.60" y="91.50" angle="0.00" type="DEFAULT_VEHTYPE" speed="10.44" pos="91.50" lane="E5_0" slope="0.00"/>
        <vehicle id="64" x="100.79" y="-1.60" angle="143.44" type="DEFAULT_VEHTYPE" speed="3.98" pos="0.79" lane="E4_0" slope="0.00"/>
        <vehicle id="75" x="55.46" y="98.40" angle="90.00" type="DEFAULT_VEHTYPE" speed="10.97" pos="55.46" lane="E0_0" slope="0.00"/>
        <vehicle id="79" x="201.60" y="58.58" angle="0.00" type="DEFAULT_VEHTYPE" speed="12.90" pos="58.58" lane="E5_0" slope="0.00"/>
        <vehicle id="87" x="27.68" y="98.40" angle="90.00" type="DEFAULT_VEHTYPE" speed="8.83" pos="27.68" lane="E0_0" slope="0.00"/>
    </timestep>
    <timestep time="80.00">
        <vehicle id="20" x="10.23" y="98.40" angle="90.00" type="DEFAULT_VEHTYPE" speed="3.59" pos="10.23" lane="E0_0" slope="0.00"/>