<?xml version="1.0" encoding="UTF-8"?>

<!-- generated on 2024-09-04 16:08:47 by Eclipse SUMO sumo Version 1.15.0
<configuration xmlns:xsi="http://www.w3.org/2001/XMLSchema-instance" xsi:noNamespaceSchemaLocation="http://sumo.dlr.de/xsd/sumoConfiguration.xsd">

    <input>
        <net-file value="network_and_config/two_route_yield/network.net.xml"/>
        <route-files value="network_and_config/two_route_yield/rou.rou.xml"/>
    </input>

    <output>
        <fcd-output value="network_and_config/two_route_yield/fcd.xml"/>
        <summary-output value="network_and_config/two_route_yield/summary.xml"/>
        <tripinfo-output value="network_and_config/two_route_yield/tripinfo.xml"/>
    </output>

    <processing>
        <time-to-teleport value="-1"/>
    </processing>

    <report>
        <no-step-log value="true"/>
    </report>

    <random_number>
        <seed value="23423"/>
    </random_number>

</configuration>
