<?xml version="1.0" encoding="UTF-8"?>

<!-- generated on 2024-09-02 10:00:45 by Eclipse SUMO sumo Version 1.19.0
<configuration xmlns:xsi="http://www.w3.org/2001/XMLSchema-instance" xsi:noNamespaceSchemaLocation="http://sumo.dlr.de/xsd/sumoConfiguration.xsd">

    <input>
        <net-file value="../../network_and_config/two_route_yield/network.net.xml"/>
        <route-files value="../../network_and_config/two_route_yield/rou.rou.xml"/>
    </input>

    <output>
        <fcd-output value="../../network_and_config/two_route_yield/fcd.xml"/>
        <summary-output value="../../network_and_config/two_route_yield/summary.xml"/>
        <tripinfo-output value="../../network_and_config/two_route_yield/tripinfo.xml"/>
    </output>

    <processing>
        <time-to-teleport value="-1"/>
    </processing>

    <report>
        <no-step-log value="true"/>
    </report>

    <random_number>
        <seed value="23423"/>
    </random_number>

</configuration>
-->

<fcd-export xmlns:xsi="http://www.w3.org/2001/XMLSchema-instance" xsi:noNamespaceSchemaLocation="http://sumo.dlr.de/xsd/fcd_file.xsd">
    <timestep time="0.00"/>
    <timestep time="1.00"/>
    <timestep time="2.00"/>
    <timestep time="3.00"/>
    <timestep time="4.00"/>
    <timestep time="5.00"/>
    <timestep time="6.00"/>
    <timestep time="7.00"/>
    <timestep time="8.00"/>
    <timestep time="9.00"/>
    <timestep time="10.00"/>
    <timestep time="11.00">
        <vehicle id="25" x="5.10" y="98.40" angle="90.00" type="DEFAULT_VEHTYPE" speed="0.00" pos="5.10" lane="E0_0" slope="0.00"/>
    </timestep>
    <timestep time="12.00">
        <vehicle id="25" x="7.12" y="98.40" angle="90.00" type="DEFAULT_VEHTYPE" speed="2.02" pos="7.12" lane="E0_0" slope="0.00"/>
    </timestep>
    <timestep time="13.00">
        <vehicle id="25" x="10.97" y="98.40" angle="90.00" type="DEFAULT_VEHTYPE" speed="3.85" pos="10.97" lane="E0_0" slope="0.00"/>
    </timestep>
    <timestep time="14.00">
        <vehicle id="25" x="17.17" y="98.40" angle="90.00" type="DEFAULT_VEHTYPE" speed="6.19" pos="17.17" lane="E0_0" slope="0.00"/>
    </timestep>
    <timestep time="15.00">
        <vehicle id="25" x="25.88" y="98.40" angle="90.00" type="DEFAULT_VEHTYPE" speed="8.71" pos="25.88" lane="E0_0" slope="0.00"/>
    </timestep>
    <timestep time="16.00">
        <vehicle id="25" x="36.27" y="98.40" angle="90.00" type="DEFAULT_VEHTYPE" speed="10.40" pos="36.27" lane="E0_0" slope="0.00"/>
    </timestep>
    <timestep time="17.00">
        <vehicle id="25" x="49.02" y="98.40" angle="90.00" type="DEFAULT_VEHTYPE" speed="12.74" pos="49.02" lane="E0_0" slope="0.00"/>
    </timestep>
    <timestep time="18.00">
        <vehicle id="25" x="62.86" y="98.40" angle="90.00" type="DEFAULT_VEHTYPE" speed="13.84" pos="62.86" lane="E0_0" slope="0.00"/>
    </timestep>
    <timestep time="19.00">
        <vehicle id="25" x="76.61" y="98.40" angle="90.00" type="DEFAULT_VEHTYPE" speed="13.75" pos="76.61" lane="E0_0" slope="0.00"/>
    </timestep>
    <timestep time="20.00">
        <vehicle id="25" x="91.20" y="98.40" angle="90.00" type="DEFAULT_VEHTYPE" speed="14.60" pos="91.20" lane="E0_0" slope="0.00"/>
    </timestep>
    <timestep time="21.00">
        <vehicle id="25" x="104.93" y="98.40" angle="90.00" type="DEFAULT_VEHTYPE" speed="13.72" pos="0.93" lane="E1_0" slope="0.00"/>
    </timestep>
    <timestep time="22.00">
        <vehicle id="25" x="119.54" y="98.40" angle="90.00" type="DEFAULT_VEHTYPE" speed="14.62" pos="15.54" lane="E1_0" slope="0.00"/>
    </timestep>
    <timestep time="23.00">
        <vehicle id="25" x="133.53" y="98.40" angle="90.00" type="DEFAULT_VEHTYPE" speed="13.99" pos="29.53" lane="E1_0" slope="0.00"/>
    </timestep>
    <timestep time="24.00">
        <vehicle id="25" x="148.20" y="98.40" angle="90.00" type="DEFAULT_VEHTYPE" speed="14.67" pos="44.20" lane="E1_0" slope="0.00"/>
    </timestep>
    <timestep time="25.00">
        <vehicle id="25" x="162.54" y="98.40" angle="90.00" type="DEFAULT_VEHTYPE" speed="14.34" pos="58.54" lane="E1_0" slope="0.00"/>
    </timestep>
    <timestep time="26.00">
        <vehicle id="25" x="177.10" y="98.40" angle="90.00" type="DEFAULT_VEHTYPE" speed="14.56" pos="73.10" lane="E1_0" slope="0.00"/>
    </timestep>
    <timestep time="27.00">
        <vehicle id="25" x="187.51" y="98.40" angle="90.00" type="DEFAULT_VEHTYPE" speed="10.41" pos="83.51" lane="E1_0" slope="0.00"/>
    </timestep>
    <timestep time="28.00">
        <vehicle id="25" x="193.42" y="98.40" angle="90.00" type="DEFAULT_VEHTYPE" speed="5.91" pos="89.42" lane="E1_0" slope="0.00"/>
    </timestep>
    <timestep time="29.00">
        <vehicle id="25" x="201.88" y="98.40" angle="90.00" type="DEFAULT_VEHTYPE" speed="8.46" pos="5.88" lane=":J2_1_0" slope="0.00"/>
    </timestep>
    <timestep time="30.00">
        <vehicle id="25" x="212.69" y="98.40" angle="90.00" type="DEFAULT_VEHTYPE" speed="10.80" pos="5.49" lane="E2_0" slope="0.00"/>
    </timestep>
    <timestep time="31.00">
        <vehicle id="25" x="225.61" y="98.40" angle="90.00" type="DEFAULT_VEHTYPE" speed="12.92" pos="18.41" lane="E2_0" slope="0.00"/>
    </timestep>
    <timestep time="32.00">
        <vehicle id="25" x="240.17" y="98.40" angle="90.00" type="DEFAULT_VEHTYPE" speed="14.56" pos="32.97" lane="E2_0" slope="0.00"/>
    </timestep>
    <timestep time="33.00">
        <vehicle id="25" x="254.12" y="98.40" angle="90.00" type="DEFAULT_VEHTYPE" speed="13.95" pos="46.92" lane="E2_0" slope="0.00"/>
    </timestep>
    <timestep time="34.00">
        <vehicle id="25" x="268.35" y="98.40" angle="90.00" type="DEFAULT_VEHTYPE" speed="14.23" pos="61.15" lane="E2_0" slope="0.00"/>
    </timestep>
    <timestep time="35.00">
        <vehicle id="25" x="282.94" y="98.40" angle="90.00" type="DEFAULT_VEHTYPE" speed="14.59" pos="75.74" lane="E2_0" slope="0.00"/>
        <vehicle id="49" x="5.10" y="98.40" angle="90.00" type="DEFAULT_VEHTYPE" speed="0.00" pos="5.10" lane="E0_0" slope="0.00"/>
    </timestep>
    <timestep time="36.00">
        <vehicle id="25" x="297.57" y="98.40" angle="90.00" type="DEFAULT_VEHTYPE" speed="14.63" pos="90.37" lane="E2_0" slope="0.00"/>
        <vehicle id="49" x="7.67" y="98.40" angle="90.00" type="DEFAULT_VEHTYPE" speed="2.57" pos="7.67" lane="E0_0" slope="0.00"/>
    </timestep>
    <timestep time="37.00">
        <vehicle id="49" x="11.59" y="98.40" angle="90.00" type="DEFAULT_VEHTYPE" speed="3.92" pos="11.59" lane="E0_0" slope="0.00"/>
    </timestep>
    <timestep time="38.00">
        <vehicle id="49" x="16.87" y="98.40" angle="90.00" type="DEFAULT_VEHTYPE" speed="5.28" pos="16.87" lane="E0_0" slope="0.00"/>
    </timestep>
    <timestep time="39.00">
        <vehicle id="49" x="23.75" y="98.40" angle="90.00" type="DEFAULT_VEHTYPE" speed="6.88" pos="23.75" lane="E0_0" slope="0.00"/>
        <vehicle id="79" x="5.10" y="98.40" angle="90.00" type="DEFAULT_VEHTYPE" speed="0.00" pos="5.10" lane="E0_0" slope="0.00"/>
    </timestep>
    <timestep time="40.00">
        <vehicle id="49" x="32.65" y="98.40" angle="90.00" type="DEFAULT_VEHTYPE" speed="8.90" pos="32.65" lane="E0_0" slope="0.00"/>
        <vehicle id="79" x="7.03" y="98.40" angle="90.00" type="DEFAULT_VEHTYPE" speed="1.93" pos="7.03" lane="E0_0" slope="0.00"/>
    </timestep>
    <timestep time="41.00">
        <vehicle id="49" x="43.23" y="98.40" angle="90.00" type="DEFAULT_VEHTYPE" speed="10.58" pos="43.23" lane="E0_0" slope="0.00"/>
        <vehicle id="79" x="11.25" y="98.40" angle="90.00" type="DEFAULT_VEHTYPE" speed="4.21" pos="11.25" lane="E0_0" slope="0.00"/>
    </timestep>
    <timestep time="42.00">
        <vehicle id="49" x="55.51" y="98.40" angle="90.00" type="DEFAULT_VEHTYPE" speed="12.28" pos="55.51" lane="E0_0" slope="0.00"/>
        <vehicle id="79" x="17.10" y="98.40" angle="90.00" type="DEFAULT_VEHTYPE" speed="5.85" pos="17.10" lane="E0_0" slope="0.00"/>
    </timestep>
    <timestep time="43.00">
        <vehicle id="49" x="67.36" y="98.40" angle="90.00" type="DEFAULT_VEHTYPE" speed="11.85" pos="67.36" lane="E0_0" slope="0.00"/>
        <vehicle id="79" x="25.44" y="98.40" angle="90.00" type="DEFAULT_VEHTYPE" speed="8.34" pos="25.44" lane="E0_0" slope="0.00"/>
    </timestep>
    <timestep time="44.00">
        <vehicle id="49" x="79.37" y="98.40" angle="90.00" type="DEFAULT_VEHTYPE" speed="12.01" pos="79.37" lane="E0_0" slope="0.00"/>
        <vehicle id="79" x="35.19" y="98.40" angle="90.00" type="DEFAULT_VEHTYPE" speed="9.75" pos="35.19" lane="E0_0" slope="0.00"/>
    </timestep>
    <timestep time="45.00">
        <vehicle id="49" x="91.77" y="98.40" angle="90.00" type="DEFAULT_VEHTYPE" speed="12.40" pos="91.77" lane="E0_0" slope="0.00"/>
        <vehicle id="79" x="47.04" y="98.40" angle="90.00" type="DEFAULT_VEHTYPE" speed="11.85" pos="47.04" lane="E0_0" slope="0.00"/>
    </timestep>
    <timestep time="46.00">
        <vehicle id="49" x="103.93" y="98.40" angle="90.00" type="DEFAULT_VEHTYPE" speed="12.16" pos="11.13" lane=":J1_1_0" slope="0.00"/>
        <vehicle id="79" x="61.07" y="98.40" angle="90.00" type="DEFAULT_VEHTYPE" speed="14.03" pos="61.07" lane="E0_0" slope="0.00"/>
    </timestep>
    <timestep time="47.00">
        <vehicle id="49" x="116.96" y="98.40" angle="90.00" type="DEFAULT_VEHTYPE" speed="13.03" pos="12.96" lane="E1_0" slope="0.00"/>
        <vehicle id="79" x="74.30" y="98.40" angle="90.00" type="DEFAULT_VEHTYPE" speed="13.23" pos="74.30" lane="E0_0" slope="0.00"/>
    </timestep>
    <timestep time="48.00">
        <vehicle id="49" x="129.64" y="98.40" angle="90.00" type="DEFAULT_VEHTYPE" speed="12.68" pos="25.64" lane="E1_0" slope="0.00"/>
        <vehicle id="79" x="87.38" y="98.40" angle="90.00" type="DEFAULT_VEHTYPE" speed="13.08" pos="87.38" lane="E0_0" slope="0.00"/>
    </timestep>
    <timestep time="49.00">
        <vehicle id="49" x="142.67" y="98.40" angle="90.00" type="DEFAULT_VEHTYPE" speed="13.03" pos="38.67" lane="E1_0" slope="0.00"/>
        <vehicle id="79" x="100.44" y="98.40" angle="90.00" type="DEFAULT_VEHTYPE" speed="13.06" pos="7.64" lane=":J1_1_0" slope="0.00"/>
    </timestep>
    <timestep time="50.00">
        <vehicle id="49" x="154.58" y="98.40" angle="90.00" type="DEFAULT_VEHTYPE" speed="11.92" pos="50.58" lane="E1_0" slope="0.00"/>
        <vehicle id="79" x="114.07" y="98.40" angle="90.00" type="DEFAULT_VEHTYPE" speed="13.63" pos="10.07" lane="E1_0" slope="0.00"/>
    </timestep>
    <timestep time="51.00">
        <vehicle id="49" x="166.62" y="98.40" angle="90.00" type="DEFAULT_VEHTYPE" speed="12.03" pos="62.62" lane="E1_0" slope="0.00"/>
        <vehicle id="79" x="127.24" y="98.40" angle="90.00" type="DEFAULT_VEHTYPE" speed="13.17" pos="23.24" lane="E1_0" slope="0.00"/>
    </timestep>
    <timestep time="52.00">
        <vehicle id="49" x="178.86" y="98.40" angle="90.00" type="DEFAULT_VEHTYPE" speed="12.25" pos="74.86" lane="E1_0" slope="0.00"/>
        <vehicle id="79" x="140.29" y="98.40" angle="90.00" type="DEFAULT_VEHTYPE" speed="13.05" pos="36.29" lane="E1_0" slope="0.00"/>
    </timestep>
    <timestep time="53.00">
        <vehicle id="49" x="188.99" y="98.40" angle="90.00" type="DEFAULT_VEHTYPE" speed="10.12" pos="84.99" lane="E1_0" slope="0.00"/>
        <vehicle id="79" x="153.98" y="98.40" angle="90.00" type="DEFAULT_VEHTYPE" speed="13.69" pos="49.98" lane="E1_0" slope="0.00"/>
    </timestep>
    <timestep time="54.00">
        <vehicle id="49" x="194.61" y="98.40" angle="90.00" type="DEFAULT_VEHTYPE" speed="5.62" pos="90.61" lane="E1_0" slope="0.00"/>
        <vehicle id="79" x="167.74" y="98.40" angle="90.00" type="DEFAULT_VEHTYPE" speed="13.76" pos="63.74" lane="E1_0" slope="0.00"/>
    </timestep>
    <timestep time="55.00">
        <vehicle id="49" x="202.54" y="98.40" angle="90.00" type="DEFAULT_VEHTYPE" speed="7.93" pos="6.54" lane=":J2_1_0" slope="0.00"/>
        <vehicle id="79" x="178.25" y="98.40" angle="90.00" type="DEFAULT_VEHTYPE" speed="10.50" pos="74.25" lane="E1_0" slope="0.00"/>
    </timestep>
    <timestep time="56.00">
        <vehicle id="49" x="211.92" y="98.40" angle="90.00" type="DEFAULT_VEHTYPE" speed="9.37" pos="4.72" lane="E2_0" slope="0.00"/>
        <vehicle id="79" x="188.12" y="98.40" angle="90.00" type="DEFAULT_VEHTYPE" speed="9.87" pos="84.12" lane="E1_0" slope="0.00"/>
    </timestep>
    <timestep time="57.00">
        <vehicle id="49" x="223.76" y="98.40" angle="90.00" type="DEFAULT_VEHTYPE" speed="11.84" pos="16.56" lane="E2_0" slope="0.00"/>
        <vehicle id="79" x="193.60" y="98.40" angle="90.00" type="DEFAULT_VEHTYPE" speed="5.48" pos="89.60" lane="E1_0" slope="0.00"/>
    </timestep>
    <timestep time="58.00">
        <vehicle id="49" x="236.05" y="98.40" angle="90.00" type="DEFAULT_VEHTYPE" speed="12.29" pos="28.85" lane="E2_0" slope="0.00"/>
        <vehicle id="79" x="201.66" y="98.40" angle="90.00" type="DEFAULT_VEHTYPE" speed="8.06" pos="5.66" lane=":J2_1_0" slope="0.00"/>
    </timestep>
    <timestep time="59.00">
        <vehicle id="49" x="248.92" y="98.40" angle="90.00" type="DEFAULT_VEHTYPE" speed="12.87" pos="41.72" lane="E2_0" slope="0.00"/>
        <vehicle id="64" x="5.10" y="98.40" angle="90.00" type="DEFAULT_VEHTYPE" speed="0.00" pos="5.10" lane="E0_0" slope="0.00"/>
        <vehicle id="79" x="212.17" y="98.40" angle="90.00" type="DEFAULT_VEHTYPE" speed="10.51" pos="4.97" lane="E2_0" slope="0.00"/>
    </timestep>
    <timestep time="60.00">
        <vehicle id="49" x="261.56" y="98.40" angle="90.00" type="DEFAULT_VEHTYPE" speed="12.64" pos="54.36" lane="E2_0" slope="0.00"/>
        <vehicle id="64" x="7.27" y="98.40" angle="90.00" type="DEFAULT_VEHTYPE" speed="2.17" pos="7.27" lane="E0_0" slope="0.00"/>
        <vehicle id="79" x="225.01" y="98.40" angle="90.00" type="DEFAULT_VEHTYPE" speed="12.85" pos="17.81" lane="E2_0" slope="0.00"/>
    </timestep>
    <timestep time="61.00">
        <vehicle id="49" x="273.76" y="98.40" angle="90.00" type="DEFAULT_VEHTYPE" speed="12.20" pos="66.56" lane="E2_0" slope="0.00"/>
        <vehicle id="64" x="11.71" y="98.40" angle="90.00" type="DEFAULT_VEHTYPE" speed="4.44" pos="11.71" lane="E0_0" slope="0.00"/>
        <vehicle id="79" x="238.78" y="98.40" angle="90.00" type="DEFAULT_VEHTYPE" speed="13.77" pos="31.58" lane="E2_0" slope="0.00"/>
    </timestep>
    <timestep time="62.00">
        <vehicle id="49" x="286.26" y="98.40" angle="90.00" type="DEFAULT_VEHTYPE" speed="12.50" pos="79.06" lane="E2_0" slope="0.00"/>
        <vehicle id="64" x="18.63" y="98.40" angle="90.00" type="DEFAULT_VEHTYPE" speed="6.92" pos="18.63" lane="E0_0" slope="0.00"/>
        <vehicle id="79" x="251.52" y="98.40" angle="90.00" type="DEFAULT_VEHTYPE" speed="12.74" pos="44.32" lane="E2_0" slope="0.00"/>
    </timestep>
    <timestep time="63.00">
        <vehicle id="49" x="299.27" y="98.40" angle="90.00" type="DEFAULT_VEHTYPE" speed="13.01" pos="92.07" lane="E2_0" slope="0.00"/>
        <vehicle id="64" x="27.78" y="98.40" angle="90.00" type="DEFAULT_VEHTYPE" speed="9.15" pos="27.78" lane="E0_0" slope="0.00"/>
        <vehicle id="79" x="265.41" y="98.40" angle="90.00" type="DEFAULT_VEHTYPE" speed="13.89" pos="58.21" lane="E2_0" slope="0.00"/>
    </timestep>
    <timestep time="64.00">
        <vehicle id="64" x="39.16" y="98.40" angle="90.00" type="DEFAULT_VEHTYPE" speed="11.38" pos="39.16" lane="E0_0" slope="0.00"/>
        <vehicle id="79" x="278.31" y="98.40" angle="90.00" type="DEFAULT_VEHTYPE" speed="12.91" pos="71.11" lane="E2_0" slope="0.00"/>
    </timestep>
    <timestep time="65.00">
        <vehicle id="39" x="5.10" y="98.40" angle="90.00" type="DEFAULT_VEHTYPE" speed="0.00" pos="5.10" lane="E0_0" slope="0.00"/>
        <vehicle id="64" x="52.61" y="98.40" angle="90.00" type="DEFAULT_VEHTYPE" speed="13.45" pos="52.61" lane="E0_0" slope="0.00"/>
        <vehicle id="79" x="291.43" y="98.40" angle="90.00" type="DEFAULT_VEHTYPE" speed="13.11" pos="84.23" lane="E2_0" slope="0.00"/>
    </timestep>
    <timestep time="66.00">
        <vehicle id="39" x="6.45" y="98.40" angle="90.00" type="DEFAULT_VEHTYPE" speed="1.35" pos="6.45" lane="E0_0" slope="0.00"/>
        <vehicle id="64" x="66.86" y="98.40" angle="90.00" type="DEFAULT_VEHTYPE" speed="14.25" pos="66.86" lane="E0_0" slope="0.00"/>
    </timestep>
    <timestep time="67.00">
        <vehicle id="39" x="9.27" y="98.40" angle="90.00" type="DEFAULT_VEHTYPE" speed="2.83" pos="9.27" lane="E0_0" slope="0.00"/>
        <vehicle id="64" x="81.18" y="98.40" angle="90.00" type="DEFAULT_VEHTYPE" speed="14.31" pos="81.18" lane="E0_0" slope="0.00"/>
    </timestep>
    <timestep time="68.00">
        <vehicle id="39" x="14.67" y="98.40" angle="90.00" type="DEFAULT_VEHTYPE" speed="5.40" pos="14.67" lane="E0_0" slope="0.00"/>
        <vehicle id="64" x="95.42" y="98.40" angle="90.00" type="DEFAULT_VEHTYPE" speed="14.25" pos="2.62" lane=":J1_1_0" slope="0.00"/>
    </timestep>
    <timestep time="69.00">
        <vehicle id="39" x="21.95" y="98.40" angle="90.00" type="DEFAULT_VEHTYPE" speed="7.28" pos="21.95" lane="E0_0" slope="0.00"/>
        <vehicle id="64" x="109.55" y="98.40" angle="90.00" type="DEFAULT_VEHTYPE" speed="14.12" pos="5.55" lane="E1_0" slope="0.00"/>
    </timestep>
    <timestep time="70.00">
        <vehicle id="39" x="30.68" y="98.40" angle="90.00" type="DEFAULT_VEHTYPE" speed="8.73" pos="30.68" lane="E0_0" slope="0.00"/>
        <vehicle id="64" x="123.67" y="98.40" angle="90.00" type="DEFAULT_VEHTYPE" speed="14.12" pos="19.67" lane="E1_0" slope="0.00"/>
    </timestep>
    <timestep time="71.00">
        <vehicle id="39" x="40.81" y="98.40" angle="90.00" type="DEFAULT_VEHTYPE" speed="10.13" pos="40.81" lane="E0_0" slope="0.00"/>
        <vehicle id="64" x="138.64" y="98.40" angle="90.00" type="DEFAULT_VEHTYPE" speed="14.97" pos="34.64" lane="E1_0" slope="0.00"/>
    </timestep>
    <timestep time="72.00">
        <vehicle id="39" x="52.85" y="98.40" angle="90.00" type="DEFAULT_VEHTYPE" speed="12.04" pos="52.85" lane="E0_0" slope="0.00"/>
        <vehicle id="64" x="152.51" y="98.40" angle="90.00" type="DEFAULT_VEHTYPE" speed="13.87" pos="48.51" lane="E1_0" slope="0.00"/>
        <vehicle id="75" x="5.10" y="98.40" angle="90.00" type="DEFAULT_VEHTYPE" speed="0.00" pos="5.10" lane="E0_0" slope="0.00"/>
    </timestep>
    <timestep time="73.00">
        <vehicle id="39" x="66.58" y="98.40" angle="90.00" type="DEFAULT_VEHTYPE" speed="13.72" pos="66.58" lane="E0_0" slope="0.00"/>
        <vehicle id="64" x="166.50" y="98.40" angle="90.00" type="DEFAULT_VEHTYPE" speed="13.98" pos="62.50" lane="E1_0" slope="0.00"/>
        <vehicle id="75" x="7.65" y="98.40" angle="90.00" type="DEFAULT_VEHTYPE" speed="2.55" pos="7.65" lane="E0_0" slope="0.00"/>
    </timestep>
    <timestep time="74.00">
        <vehicle id="39" x="80.50" y="98.40" angle="90.00" type="DEFAULT_VEHTYPE" speed="13.92" pos="80.50" lane="E0_0" slope="0.00"/>
        <vehicle id="64" x="180.36" y="98.40" angle="90.00" type="DEFAULT_VEHTYPE" speed="13.86" pos="76.36" lane="E1_0" slope="0.00"/>
        <vehicle id="75" x="12.43" y="98.40" angle="90.00" type="DEFAULT_VEHTYPE" speed="4.78" pos="12.43" lane="E0_0" slope="0.00"/>
    </timestep>
    <timestep time="75.00">
        <vehicle id="39" x="93.72" y="98.40" angle="90.00" type="DEFAULT_VEHTYPE" speed="13.22" pos="0.92" lane=":J1_1_0" slope="0.00"/>
        <vehicle id="64" x="189.72" y="98.40" angle="90.00" type="DEFAULT_VEHTYPE" speed="9.36" pos="85.72" lane="E1_0" slope="0.00"/>
        <vehicle id="75" x="18.67" y="98.40" angle="90.00" type="DEFAULT_VEHTYPE" speed="6.25" pos="18.67" lane="E0_0" slope="0.00"/>
        <vehicle id="87" x="5.10" y="98.40" angle="90.00" type="DEFAULT_VEHTYPE" speed="0.00" pos="5.10" lane="E0_0" slope="0.00"/>
    </timestep>
    <timestep time="76.00">
        <vehicle id="39" x="107.17" y="98.40" angle="90.00" type="DEFAULT_VEHTYPE" speed="13.46" pos="3.17" lane="E1_0" slope="0.00"/>
        <vehicle id="64" x="194.79" y="98.40" angle="90.00" type="DEFAULT_VEHTYPE" speed="5.07" pos="90.79" lane="E1_0" slope="0.00"/>
        <vehicle id="75" x="26.75" y="98.40" angle="90.00" type="DEFAULT_VEHTYPE" speed="8.08" pos="26.75" lane="E0_0" slope="0.00"/>
        <vehicle id="87" x="6.77" y="98.40" angle="90.00" type="DEFAULT_VEHTYPE" speed="1.67" pos="6.77" lane="E0_0" slope="0.00"/>
    </timestep>
    <timestep time="77.00">
        <vehicle id="39" x="120.52" y="98.40" angle="90.00" type="DEFAULT_VEHTYPE" speed="13.35" pos="16.52" lane="E1_0" slope="0.00"/>
        <vehicle id="64" x="201.78" y="98.40" angle="90.00" type="DEFAULT_VEHTYPE" speed="7.00" pos="5.78" lane=":J2_1_0" slope="0.00"/>
        <vehicle id="75" x="37.31" y="98.40" angle="90.00" type="DEFAULT_VEHTYPE" speed="10.56" pos="37.31" lane="E0_0" slope="0.00"/>
        <vehicle id="87" x="10.78" y="98.40" angle="90.00" type="DEFAULT_VEHTYPE" speed="4.01" pos="10.78" lane="E0_0" slope="0.00"/>
    </timestep>
    <timestep time="78.00">
        <vehicle id="20" x="5.10" y="98.40" angle="90.00" type="DEFAULT_VEHTYPE" speed="0.00" pos="5.10" lane="E0_0" slope="0.00"/>
        <vehicle id="39" x="134.06" y="98.40" angle="90.00" type="DEFAULT_VEHTYPE" speed="13.54" pos="30.06" lane="E1_0" slope="0.00"/>
        <vehicle id="64" x="210.64" y="98.40" angle="90.00" type="DEFAULT_VEHTYPE" speed="8.86" pos="3.44" lane="E2_0" slope="0.00"/>
        <vehicle id="75" x="48.20" y="98.40" angle="90.00" type="DEFAULT_VEHTYPE" speed="10.88" pos="48.20" lane="E0_0" slope="0.00"/>
        <vehicle id="87" x="17.37" y="98.40" angle="90.00" type="DEFAULT_VEHTYPE" speed="6.59" pos="17.37" lane="E0_0" slope="0.00"/>
    </timestep>
    <timestep time="79.00">
        <vehicle id="20" x="7.13" y="98.40" angle="90.00" type="DEFAULT_VEHTYPE" speed="2.03" pos="7.13" lane="E0_0" slope="0.00"/>
        <vehicle id="39" x="147.93" y="98.40" angle="90.00" type="DEFAULT_VEHTYPE" speed="13.87" pos="43.93" lane="E1_0" slope="0.00"/>
        <vehicle id="64" x="222.09" y="98.40" angle="90.00" type="DEFAULT_VEHTYPE" speed="11.45" pos="14.89" lane="E2_0" slope="0.00"/>
        <vehicle id="75" x="58.67" y="98.40" angle="90.00" type="DEFAULT_VEHTYPE" speed="10.48" pos="58.67" lane="E0_0" slope="0.00"/>
        <vehicle id="87" x="25.53" y="98.40" angle="90.00" type="DEFAULT_VEHTYPE" speed="8.16" pos="25.53" lane="E0_0" slope="0.00"/>
    </timestep>
    <timestep time="80.00">
        <vehicle id="20" x="11.36" y="98.40" angle="90.00" type="DEFAULT_VEHTYPE" speed="4.24" pos="11.36" lane="E0_0" slope="0.00"/>
        <vehicle id="39" x="161.83" y="98.40" angle="90.00" type="DEFAULT_VEHTYPE" speed="13.90" pos="57.83" lane="E1_0" slope="0.00"/>
        <vehicle id="64" x="235.29" y="98.40" angle="90.00" type="DEFAULT_VEHTYPE" speed="13.19" pos="28.09" lane="E2_0" slope="0.00"/>
        <vehicle id="75" x="69.95" y="98.40" angle="90.00" type="DEFAULT_VEHTYPE" speed="11.28" pos="69.95" lane="E0_0" slope="0.00"/>
        <vehicle id="87" x="35.23" y="98.40" angle="90.00" type="DEFAULT_VEHTYPE" speed="9.71" pos="35.23" lane="E0_0" slope="0.00"/>
    </timestep>
    <timestep time="81.00">
        <vehicle id="20" x="17.92" y="98.40" angle="90.00" type="DEFAULT_VEHTYPE" speed="6.56" pos="17.92" lane="E0_0" slope="0.00"/>
        <vehicle id="3" x="5.10" y="98.40" angle="90.00" type="DEFAULT_VEHTYPE" speed="0.00" pos="5.10" lane="E0_0" slope="0.00"/>
        <vehicle id="39" x="176.03" y="98.40" angle="90.00" type="DEFAULT_VEHTYPE" speed="14.20" pos="72.03" lane="E1_0" slope="0.00"/>
        <vehicle id="64" x="249.06" y="98.40" angle="90.00" type="DEFAULT_VEHTYPE" speed="13.77" pos="41.86" lane="E2_0" slope="0.00"/>
        <vehicle id="75" x="80.24" y="98.40" angle="90.00" type="DEFAULT_VEHTYPE" speed="10.29" pos="80.24" lane="E0_0" slope="0.00"/>
        <vehicle id="87" x="46.98" y="98.40" angle="90.00" type="DEFAULT_VEHTYPE" speed="11.75" pos="46.98" lane="E0_0" slope="0.00"/>
    </timestep>
    <timestep time="82.00">
        <vehicle id="20" x="25.95" y="98.40" angle="90.00" type="DEFAULT_VEHTYPE" speed="8.03" pos="25.95" lane="E0_0" slope="0.00"/>
        <vehicle id="3" x="6.46" y="98.40" angle="90.00" type="DEFAULT_VEHTYPE" speed="1.36" pos="6.46" lane="E0_0" slope="0.00"/>
        <vehicle id="39" x="186.95" y="98.40" angle="90.00" type="DEFAULT_VEHTYPE" speed="10.92" pos="82.95" lane="E1_0" slope="0.00"/>
        <vehicle id="64" x="263.42" y="98.40" angle="90.00" type="DEFAULT_VEHTYPE" speed="14.36" pos="56.22" lane="E2_0" slope="0.00"/>
        <vehicle id="75" x="90.71" y="98.40" angle="90.00" type="DEFAULT_VEHTYPE" speed="10.47" pos="90.71" lane="E0_0" slope="0.00"/>
        <vehicle id="87" x="60.93" y="98.40" angle="90.00" type="DEFAULT_VEHTYPE" speed="13.96" pos="60.93" lane="E0_0" slope="0.00"/>
    </timestep>
    <timestep time="83.00">
        <vehicle id="20" x="36.18" y="98.40" angle="90.00" type="DEFAULT_VEHTYPE" speed="10.24" pos="36.18" lane="E0_0" slope="0.00"/>
        <vehicle id="3" x="10.35" y="98.40" angle="90.00" type="DEFAULT_VEHTYPE" speed="3.89" pos="10.35" lane="E0_0" slope="0.00"/>
        <vehicle id="39" x="193.37" y="98.40" angle="90.00" type="DEFAULT_VEHTYPE" speed="6.42" pos="89.37" lane="E1_0" slope="0.00"/>
        <vehicle id="64" x="277.96" y="98.40" angle="90.00" type="DEFAULT_VEHTYPE" speed="14.54" pos="70.76" lane="E2_0" slope="0.00"/>
        <vehicle id="75" x="101.46" y="98.40" angle="90.00" type="DEFAULT_VEHTYPE" speed="10.75" pos="8.66" lane=":J1_1_0" slope="0.00"/>
        <vehicle id="87" x="74.40" y="98.40" angle="90.00" type="DEFAULT_VEHTYPE" speed="13.47" pos="74.40" lane="E0_0" slope="0.00"/>
    </timestep>
    <timestep time="84.00">
        <vehicle id="15" x="5.10" y="98.40" angle="90.00" type="DEFAULT_VEHTYPE" speed="0.00" pos="5.10" lane="E0_0" slope="0.00"/>
        <vehicle id="20" x="47.59" y="98.40" angle="90.00" type="DEFAULT_VEHTYPE" speed="11.40" pos="47.59" lane="E0_0" slope="0.00"/>
        <vehicle id="3" x="16.21" y="98.40" angle="90.00" type="DEFAULT_VEHTYPE" speed="5.86" pos="16.21" lane="E0_0" slope="0.00"/>
        <vehicle id="39" x="201.98" y="98.40" angle="90.00" type="DEFAULT_VEHTYPE" speed="8.60" pos="5.98" lane=":J2_1_0" slope="0.00"/>
        <vehicle id="64" x="291.88" y="98.40" angle="90.00" type="DEFAULT_VEHTYPE" speed="13.92" pos="84.68" lane="E2_0" slope="0.00"/>
        <vehicle id="75" x="112.12" y="98.40" angle="90.00" type="DEFAULT_VEHTYPE" speed="10.66" pos="8.12" lane="E1_0" slope="0.00"/>
        <vehicle id="87" x="86.94" y="98.40" angle="90.00" type="DEFAULT_VEHTYPE" speed="12.54" pos="86.94" lane="E0_0" slope="0.00"/>
    </timestep>
    <timestep time="85.00">
        <vehicle id="15" x="6.61" y="98.40" angle="90.00" type="DEFAULT_VEHTYPE" speed="1.51" pos="6.61" lane="E0_0" slope="0.00"/>
        <vehicle id="20" x="59.36" y="98.40" angle="90.00" type="DEFAULT_VEHTYPE" speed="11.77" pos="59.36" lane="E0_0" slope="0.00"/>
        <vehicle id="3" x="24.11" y="98.40" angle="90.00" type="DEFAULT_VEHTYPE" speed="7.90" pos="24.11" lane="E0_0" slope="0.00"/>
        <vehicle id="39" x="212.89" y="98.40" angle="90.00" type="DEFAULT_VEHTYPE" speed="10.91" pos="5.69" lane="E2_0" slope="0.00"/>
        <vehicle id="75" x="123.22" y="98.40" angle="90.00" type="DEFAULT_VEHTYPE" speed="11.10" pos="19.22" lane="E1_0" slope="0.00"/>
        <vehicle id="87" x="98.74" y="98.40" angle="90.00" type="DEFAULT_VEHTYPE" speed="11.80" pos="5.94" lane=":J1_1_0" slope="0.00"/>
    </timestep>
    <timestep time="86.00">
        <vehicle id="15" x="10.27" y="98.40" angle="90.00" type="DEFAULT_VEHTYPE" speed="3.67" pos="10.27" lane="E0_0" slope="0.00"/>
        <vehicle id="20" x="71.23" y="98.40" angle="90.00" type="DEFAULT_VEHTYPE" speed="11.88" pos="71.23" lane="E0_0" slope="0.00"/>
        <vehicle id="3" x="33.63" y="98.40" angle="90.00" type="DEFAULT_VEHTYPE" speed="9.52" pos="33.63" lane="E0_0" slope="0.00"/>
        <vehicle id="39" x="225.59" y="98.40" angle="90.00" type="DEFAULT_VEHTYPE" speed="12.71" pos="18.39" lane="E2_0" slope="0.00"/>
        <vehicle id="75" x="134.25" y="98.40" angle="90.00" type="DEFAULT_VEHTYPE" speed="11.03" pos="30.25" lane="E1_0" slope="0.00"/>
        <vehicle id="87" x="110.57" y="98.40" angle="90.00" type="DEFAULT_VEHTYPE" speed="11.83" pos="6.57" lane="E1_0" slope="0.00"/>
    </timestep>
    <timestep time="87.00">
        <vehicle id="15" x="15.43" y="98.40" angle="90.00" type="DEFAULT_VEHTYPE" speed="5.16" pos="15.43" lane="E0_0" slope="0.00"/>
        <vehicle id="20" x="83.41" y="98.40" angle="90.00" type="DEFAULT_VEHTYPE" speed="12.18" pos="83.41" lane="E0_0" slope="0.00"/>
        <vehicle id="3" x="44.93" y="98.40" angle="90.00" type="DEFAULT_VEHTYPE" speed="11.30" pos="44.93" lane="E0_0" slope="0.00"/>
        <vehicle id="39" x="238.74" y="98.40" angle="90.00" type="DEFAULT_VEHTYPE" speed="13.15" pos="31.54" lane="E2_0" slope="0.00"/>
        <vehicle id="75" x="145.01" y="98.40" angle="90.00" type="DEFAULT_VEHTYPE" speed="10.76" pos="41.01" lane="E1_0" slope="0.00"/>
        <vehicle id="87" x="122.36" y="98.40" angle="90.00" type="DEFAULT_VEHTYPE" speed="11.79" pos="18.36" lane="E1_0" slope="0.00"/>
        <vehicle id="99" x="5.10" y="98.40" angle="90.00" type="DEFAULT_VEHTYPE" speed="0.00" pos="5.10" lane="E0_0" slope="0.00"/>
    </timestep>
    <timestep time="88.00">
        <vehicle id="15" x="22.41" y="98.40" angle="90.00" type="DEFAULT_VEHTYPE" speed="6.99" pos="22.41" lane="E0_0" slope="0.00"/>
        <vehicle id="20" x="94.74" y="98.40" angle="90.00" type="DEFAULT_VEHTYPE" speed="11.33" pos="1.94" lane=":J1_1_0" slope="0.00"/>
        <vehicle id="3" x="56.83" y="98.40" angle="90.00" type="DEFAULT_VEHTYPE" speed="11.90" pos="56.83" lane="E0_0" slope="0.00"/>
        <vehicle id="39" x="252.31" y="98.40" angle="90.00" type="DEFAULT_VEHTYPE" speed="13.56" pos="45.11" lane="E2_0" slope="0.00"/>